ITEM: TIMESTEP
0
ITEM: NUMBER OF ATOMS
4630
ITEM: BOX BOUNDS xy xz yz pp pp pp
-6.0040988501800001e+01 1.0306002035000000e+02 0.0000000000000000e+00
0.0000000000000000e+00 4.4274527100805940e+00 0.0000000000000000e+00
3.8000000000000000e+02 5.0000000000000000e+02 0.0000000000000000e+00
ITEM: ATOMS id type x y z xu yu zu
27 1 -43.3847 2.61294 398.555 -43.3847 2.61294 398.555
36 1 -37.9775 1.86444 398.604 -37.9775 1.86444 398.604
31 1 -41.0228 3.27973 398.989 -41.0228 3.27973 398.989
22 1 -46.4596 4.03666 398.977 -46.4596 4.03666 398.977
20 1 -47.2503 1.82291 399.86 -47.2503 1.82291 399.86
40 1 -35.6187 2.53398 399.044 -35.6187 2.53398 399.044
34 1 -38.75 4.06656 399.477 -38.75 4.06656 399.477
17 1 -49.5312 1.05735 399.383 -49.5312 1.05735 399.383
9 1 -54.8875 1.7341 399.309 -54.8875 1.7341 399.309
43 1 -33.3492 3.3225 399.536 -33.3492 3.3225 399.536
12 1 -52.6515 2.58884 399.825 -52.6515 2.58884 399.825
5 1 -57.2434 1.11816 398.869 -57.2434 1.11816 398.869
29 1 -41.8463 1.05611 399.867 -41.8463 1.05611 399.867
853 1 -54.1762 3.02557 414.366 -54.1762 3.02557 414.366
873 1 -43.4029 1.54081 414.463 -43.4029 1.54081 414.463
865 1 -47.3286 0.777724 415.885 -47.3286 0.777724 415.885
1174 1 -35.0961 2.2163 417.462 -35.0961 2.2163 417.462
883 1 -38.0164 0.798713 414.515 -38.0164 0.798713 414.515
863 1 -48.7898 2.28348 414.414 -48.7898 2.28348 414.414
315 1 -33.5349 1.75071 402.902 -33.5349 1.75071 402.902
307 1 -38.2932 3.19105 405.278 -38.2932 3.19105 405.278
1150 1 -48.9717 0.740894 417.814 -48.9717 0.740894 417.814
855 1 -52.7152 1.52011 415.837 -52.7152 1.52011 415.837
310 1 -36.6483 3.22612 403.356 -36.6483 3.22612 403.356
871 1 -44.2245 3.73624 415.427 -44.2245 3.73624 415.427
16 1 -50.3408 3.26244 400.268 -50.3408 3.26244 400.268
309 1 -36.8293 1.68479 406.749 -36.8293 1.68479 406.749
1156 1 -45.8678 3.69954 417.356 -45.8678 3.69954 417.356
867 1 -46.5071 3.00981 414.92 -46.5071 3.00981 414.92
1159 1 -43.5856 4.42627 417.863 -43.5856 4.42627 417.863
1168 1 -38.2 3.68489 417.916 -38.2 3.68489 417.916
1170 1 -37.3781 1.48933 416.952 -37.3781 1.48933 416.952
594 1 -37.6515 3.88115 407.713 -37.6515 3.88115 407.713
37 1 -37.2811 2.52375 400.927 -37.2811 2.52375 400.927
851 1 -54.9976 0.793649 415.331 -54.9976 0.793649 415.331
857 1 -51.8938 3.75223 414.873 -51.8938 3.75223 414.873
592 1 -38.4733 1.64964 408.677 -38.4733 1.64964 408.677
849 1 -55.8189 2.98913 416.295 -55.8189 2.98913 416.295
877 1 -41.1205 2.26748 414.97 -41.1205 2.26748 414.97
1143 1 -53.5365 3.71545 416.802 -53.5365 3.71545 416.802
1140 1 -55.179 3.67852 418.731 -55.179 3.67852 418.731
845 1 -58.1013 2.26336 415.789 -58.1013 2.26336 415.789
875 1 -41.9422 0.0354802 415.934 -41.9422 0.0354802 415.934
886 1 -36.3726 0.834747 412.587 -36.3726 0.834747 412.587
891 1 -33.2676 3.79247 412.135 -33.2676 3.79247 412.135
39 1 -35.8305 1.02807 402.39 -35.8305 1.02807 402.39
1177 1 -33.6363 0.711618 418.936 -33.6363 0.711618 418.936
1167 1 -39.0219 1.45293 418.88 -39.0219 1.45293 418.88
8 1 -55.7408 4.00475 400.3 -55.7408 4.00475 400.3
869 1 -45.0462 1.50419 416.391 -45.0462 1.50419 416.391
1136 1 -57.4612 2.95234 418.225 -57.4612 2.95234 418.225
1162 1 -42.1254 2.92115 419.335 -42.1254 2.92115 419.335
15 1 -51.175 1.04513 401.275 -51.175 1.04513 401.275
280 1 -52.8145 1.01577 403.203 -52.8145 1.01577 403.203
277 1 -54.4582 0.991703 405.129 -54.4582 0.991703 405.129
273 1 -56.0967 0.955788 407.061 -56.0967 0.955788 407.061
560 1 -57.7393 0.921125 408.992 -57.7393 0.921125 408.992
557 1 -59.3825 0.8862 410.92 -59.3825 0.8862 410.92
26 1 -43.5003 1.04314 401.81 -43.5003 1.04314 401.81
294 1 -45.1469 1.01409 403.754 -45.1469 1.01409 403.754
291 1 -46.7893 0.978052 405.686 -46.7893 0.978052 405.686
576 1 -48.4299 0.940389 407.615 -48.4299 0.940389 407.615
573 1 -50.0711 0.903571 409.544 -50.0711 0.903571 409.544
570 1 -51.7126 0.866674 411.473 -51.7126 0.866674 411.473
854 1 -53.3549 0.830031 413.402 -53.3549 0.830031 413.402
305 1 -39.1144 0.959695 406.24 -39.1144 0.959695 406.24
589 1 -40.7571 0.923634 408.168 -40.7571 0.923634 408.168
586 1 -42.3998 0.887353 410.097 -42.3998 0.887353 410.097
872 1 -44.0426 0.850937 412.027 -44.0426 0.850937 412.027
599 1 -34.7285 0.870273 410.661 -34.7285 0.870273 410.661
1132 1 -59.7434 2.22653 417.719 -59.7434 2.22653 417.719
4 1 -57.3936 4.0163 402.174 -57.3936 4.0163 402.174
268 1 -59.019 3.97207 404.128 -59.019 3.97207 404.128
1152 1 -48.1502 2.97305 416.85 -48.1502 2.97305 416.85
19 1 -48.0837 4.00917 400.835 -48.0837 4.00917 400.835
286 1 -49.7179 3.97301 402.732 -49.7179 3.97301 402.732
282 1 -51.3522 3.94007 404.666 -51.3522 3.94007 404.666
279 1 -52.9937 3.91021 406.597 -52.9937 3.91021 406.597
565 1 -54.6343 3.87575 408.529 -54.6343 3.87575 408.529
563 1 -56.277 3.84095 410.46 -56.277 3.84095 410.46
846 1 -57.9202 3.80604 412.389 -57.9202 3.80604 412.389
32 1 -40.4007 4.00832 401.383 -40.4007 4.00832 401.383
300 1 -42.0436 3.97235 403.301 -42.0436 3.97235 403.301
297 1 -43.6844 3.93569 405.228 -43.6844 3.93569 405.228
293 1 -45.3256 3.89956 407.157 -45.3256 3.89956 407.157
578 1 -46.9671 3.86282 409.086 -46.9671 3.86282 409.086
575 1 -48.609 3.82604 411.015 -48.609 3.82604 411.015
860 1 -50.2512 3.78911 412.944 -50.2512 3.78911 412.944
591 1 -39.2951 3.84542 409.641 -39.2951 3.84542 409.641
588 1 -40.9382 3.80922 411.569 -40.9382 3.80922 411.569
874 1 -42.5813 3.7728 413.498 -42.5813 3.7728 413.498
10 1 -54.2848 2.51658 401.74 -54.2848 2.51658 401.74
274 1 -55.9274 2.50508 403.656 -55.9274 2.50508 403.656
271 1 -57.5595 2.46439 405.594 -57.5595 2.46439 405.594
558 1 -59.2021 2.42945 407.523 -59.2021 2.42945 407.523
24 1 -44.9916 2.56623 400.405 -44.9916 2.56623 400.405
21 1 -46.6244 2.52208 402.296 -46.6244 2.52208 402.296
288 1 -48.2564 2.48336 404.218 -48.2564 2.48336 404.218
285 1 -49.893 2.44339 406.145 -49.893 2.44339 406.145
571 1 -51.533 2.40743 408.072 -51.533 2.40743 408.072
568 1 -53.1737 2.37113 410.001 -53.1737 2.37113 410.001
852 1 -54.8159 2.33517 411.931 -54.8159 2.33517 411.931
848 1 -56.4587 2.29949 413.86 -56.4587 2.29949 413.86
306 1 -38.9327 2.49676 402.842 -38.9327 2.49676 402.842
302 1 -40.5776 2.46431 404.766 -40.5776 2.46431 404.766
299 1 -42.2197 2.42888 406.696 -42.2197 2.42888 406.696
583 1 -43.862 2.39305 408.626 -43.862 2.39305 408.626
581 1 -45.5044 2.35674 410.556 -45.5044 2.35674 410.556
866 1 -47.147 2.32022 412.485 -47.147 2.32022 412.485
880 1 -39.4771 2.3039 413.042 -39.4771 2.3039 413.042
312 1 -35.1838 1.71887 404.823 -35.1838 1.71887 404.823
2 1 -58.8817 1.13372 400.749 -58.8817 1.13372 400.749
13 1 -51.9864 3.23977 402.219 -51.9864 3.23977 402.219
278 1 -53.6358 3.2183 404.158 -53.6358 3.2183 404.158
275 1 -55.2762 3.18758 406.092 -55.2762 3.18758 406.092
562 1 -56.9173 3.15196 408.026 -56.9173 3.15196 408.026
559 1 -58.5609 3.11751 409.956 -58.5609 3.11751 409.956
1166 1 -39.8437 3.64836 419.843 -39.8437 3.64836 419.843
889 1 -34.0899 1.56111 413.098 -34.0899 1.56111 413.098
28 1 -42.6824 3.27248 400.873 -42.6824 3.27248 400.873
296 1 -44.328 3.24364 402.793 -44.328 3.24364 402.793
292 1 -45.9694 3.21013 404.722 -45.9694 3.21013 404.722
289 1 -47.6096 3.17305 406.651 -47.6096 3.17305 406.651
574 1 -49.2504 3.13575 408.58 -49.2504 3.13575 408.58
572 1 -50.8918 3.0989 410.508 -50.8918 3.0989 410.508
856 1 -52.5337 3.06204 412.437 -52.5337 3.06204 412.437
303 1 -39.9361 3.15535 407.204 -39.9361 3.15535 407.204
587 1 -41.5786 3.11919 409.133 -41.5786 3.11919 409.133
584 1 -43.2212 3.08287 411.062 -43.2212 3.08287 411.062
870 1 -44.864 3.04641 412.991 -44.864 3.04641 412.991
6 1 -56.574 1.81333 401.202 -56.574 1.81333 401.202
270 1 -58.2002 1.77678 403.155 -58.2002 1.77678 403.155
267 1 -59.8414 1.74054 405.089 -59.8414 1.74054 405.089
890 1 -33.4517 2.25206 415.535 -33.4517 2.25206 415.535
18 1 -48.8963 1.77785 401.777 -48.8963 1.77785 401.777
284 1 -50.532 1.7436 403.705 -50.532 1.7436 403.705
281 1 -52.1732 1.71244 405.634 -52.1732 1.71244 405.634
567 1 -53.814 1.67976 407.564 -53.814 1.67976 407.564
564 1 -55.4555 1.6446 409.495 -55.4555 1.6446 409.495
561 1 -57.0987 1.60988 411.425 -57.0987 1.60988 411.425
844 1 -58.7417 1.57452 413.354 -58.7417 1.57452 413.354
33 1 -39.5908 1.81456 400.451 -39.5908 1.81456 400.451
30 1 -41.2293 1.77416 402.333 -41.2293 1.77416 402.333
298 1 -42.8644 1.73941 404.261 -42.8644 1.73941 404.261
295 1 -44.5049 1.70389 406.191 -44.5049 1.70389 406.191
580 1 -46.1462 1.66744 408.121 -46.1462 1.66744 408.121
577 1 -47.788 1.63067 410.05 -47.788 1.63067 410.05
862 1 -49.4301 1.59384 411.979 -49.4301 1.59384 411.979
590 1 -40.1166 1.61364 410.605 -40.1166 1.61364 410.605
876 1 -41.7597 1.57731 412.534 -41.7597 1.57731 412.534
1163 1 -41.3037 0.725788 418.371 -41.3037 0.725788 418.371
1153 1 -47.511 3.66269 419.285 -47.511 3.66269 419.285
311 1 -36.0061 3.91592 405.786 -36.0061 3.91592 405.786
42 1 -34.188 1.07043 400.511 -34.188 1.07043 400.511
1135 1 -58.2821 0.720023 419.19 -58.2821 0.720023 419.19
1171 1 -36.7402 2.18015 419.389 -36.7402 2.18015 419.389
1139 1 -56.0001 1.4462 419.696 -56.0001 1.4462 419.696
601 1 -33.9061 3.1015 409.698 -33.9061 3.1015 409.698
313 1 -34.3572 3.94998 403.858 -34.3572 3.94998 403.858
858 1 -51.0725 1.55691 413.908 -51.0725 1.55691 413.908
868 1 -45.6855 0.814409 413.956 -45.6855 0.814409 413.956
1147 1 -51.2541 0.0144586 417.308 -51.2541 0.0144586 417.308
843 1 -59.5629 3.77019 414.319 -59.5629 3.77019 414.319
593 1 -37.8337 2.34006 411.114 -37.8337 2.34006 411.114
308 1 -37.4708 0.99424 404.313 -37.4708 0.99424 404.313
861 1 -49.6112 0.051334 415.379 -49.6112 0.051334 415.379
1158 1 -44.4073 2.19415 418.827 -44.4073 2.19415 418.827
884 1 -37.1946 3.0305 413.551 -37.1946 3.0305 413.551
881 1 -38.8383 2.9943 415.479 -38.8383 2.9943 415.479
885 1 -36.5561 3.72115 415.988 -36.5561 3.72115 415.988
859 1 -50.4327 2.24663 416.343 -50.4327 2.24663 416.343
596 1 -36.1899 2.37574 409.187 -36.1899 2.37574 409.187
879 1 -39.6601 0.762362 416.443 -39.6601 0.762362 416.443
1172 1 -35.9181 4.412 418.425 -35.9181 4.412 418.425
1154 1 -46.6894 1.46741 418.321 -46.6894 1.46741 418.321
887 1 -35.7341 1.52543 415.025 -35.7341 1.52543 415.025
597 1 -35.5506 3.06631 411.624 -35.5506 3.06631 411.624
1161 1 -42.7639 2.2309 416.899 -42.7639 2.2309 416.899
1138 1 -56.6401 0.757069 417.26 -56.6401 0.757069 417.26
1149 1 -49.7932 2.93615 418.779 -49.7932 2.93615 418.779
41 1 -35.0011 3.26223 401.441 -35.0011 3.26223 401.441
888 1 -34.912 3.75706 414.061 -34.912 3.75706 414.061
1165 1 -40.4819 2.95783 417.407 -40.4819 2.95783 417.407
1141 1 -54.3578 1.48329 417.766 -54.3578 1.48329 417.766
1145 1 -52.0755 2.20971 418.273 -52.0755 2.20971 418.273
600 1 -34.5454 2.4107 407.261 -34.5454 2.4107 407.261
1148 1 -50.6146 0.703909 419.743 -50.6146 0.703909 419.743
882 1 -38.6554 0.108291 412.078 -38.6554 0.108291 412.078
1157 1 -45.229 4.38944 419.792 -45.229 4.38944 419.792
1144 1 -52.8968 4.40491 419.237 -52.8968 4.40491 419.237
602 1 -33.0834 0.90506 408.735 -33.0834 0.90506 408.735
1131 1 -59.9237 0.682439 421.12 -59.9237 0.682439 421.12
1755 1 -33.3699 2.74971 428.174 -33.3699 2.74971 428.174
1460 1 -37.7466 2.8346 423.753 -37.7466 2.8346 423.753
2308 1 -46.9584 3.29802 437.766 -46.9584 3.29802 437.766
2573 1 -59.999 4.04691 437.166 -59.999 4.04691 437.166
2316 1 -42.2193 1.87096 435.378 -42.2193 1.87096 435.378
2312 1 -44.6791 4.02688 438.274 -44.6791 4.02688 438.274
1464 1 -35.4655 3.56235 424.263 -35.4655 3.56235 424.263
1461 1 -36.9247 0.639198 422.789 -36.9247 0.639198 422.789
2039 1 -36.0193 3.36676 434.466 -36.0193 3.36676 434.466
2613 1 -37.8428 1.78675 439.798 -37.8428 1.78675 439.798
1467 1 -33.1845 4.29008 424.773 -33.1845 4.29008 424.773
2603 1 -43.2197 2.52285 439.747 -43.2197 2.52285 439.747
1443 1 -46.8721 4.35242 421.721 -46.8721 4.35242 421.721
1748 1 -37.1093 3.52566 426.19 -37.1093 3.52566 426.19
2023 1 -44.4988 1.14221 434.87 -44.4988 1.14221 434.87
2310 1 -45.4986 1.7938 439.239 -45.4986 1.7938 439.239
1151 1 -48.3325 1.43046 420.25 -48.3325 1.43046 420.25
2303 1 -50.0574 0.336277 438.224 -50.0574 0.336277 438.224
2299 1 -52.3374 4.03544 437.718 -52.3374 4.03544 437.718
2033 1 -39.1195 0.405201 434.922 -39.1195 0.405201 434.922
1433 1 -52.2571 0.666677 421.673 -52.2571 0.666677 421.673
1430 1 -53.8992 0.629118 423.603 -53.8992 0.629118 423.603
1426 1 -55.5407 0.591207 425.533 -55.5407 0.591207 425.533
1713 1 -57.1817 0.552972 427.464 -57.1817 0.552972 427.464
1710 1 -58.8222 0.514471 429.395 -58.8222 0.514471 429.395
2330 1 -33.9237 2.55422 438.378 -33.9237 2.55422 438.378
1160 1 -42.9472 0.689014 420.299 -42.9472 0.689014 420.299
1447 1 -44.5904 0.652029 422.228 -44.5904 0.652029 422.228
1444 1 -46.2333 0.614798 424.157 -46.2333 0.614798 424.157
1730 1 -47.8757 0.577277 426.087 -47.8757 0.577277 426.087
1727 1 -49.5175 0.53944 428.016 -49.5175 0.53944 428.016
1724 1 -51.1587 0.501294 429.947 -51.1587 0.501294 429.947
2008 1 -52.7993 0.462882 431.878 -52.7993 0.462882 431.878
2006 1 -54.4393 0.424272 433.809 -54.4393 0.424272 433.809
1458 1 -38.5684 0.602463 424.717 -38.5684 0.602463 424.717
1743 1 -40.2117 0.565383 426.645 -40.2117 0.565383 426.645
1740 1 -41.8545 0.527955 428.574 -41.8545 0.527955 428.574
2026 1 -43.4966 0.490179 430.503 -43.4966 0.490179 430.503
2022 1 -45.1379 0.452073 432.433 -45.1379 0.452073 432.433
2019 1 -46.7785 0.413678 434.363 -46.7785 0.413678 434.363
2309 1 -46.1387 1.10365 436.801 -46.1387 1.10365 436.801
1137 1 -56.821 3.64124 420.661 -56.821 3.64124 420.661
1421 1 -58.4626 3.60353 422.591 -58.4626 3.60353 422.591
1439 1 -49.1539 3.62563 421.214 -49.1539 3.62563 421.214
1435 1 -50.7964 3.58831 423.144 -50.7964 3.58831 423.144
1432 1 -52.4384 3.55067 425.074 -52.4384 3.55067 425.074
1719 1 -54.0799 3.51268 427.004 -54.0799 3.51268 427.004
1716 1 -55.7208 3.4744 428.935 -55.7208 3.4744 428.935
2001 1 -57.3612 3.43587 430.866 -57.3612 3.43587 430.866
1998 1 -59.0011 3.39719 432.798 -59.0011 3.39719 432.798
2323 1 -37.6609 3.32882 436.395 -37.6609 3.32882 436.395
1453 1 -41.4873 3.61157 421.772 -41.4873 3.61157 421.772
1450 1 -43.1306 3.57454 423.7 -43.1306 3.57454 423.7
1446 1 -44.7734 3.53722 425.629 -44.7734 3.53722 425.629
1732 1 -46.4157 3.4996 427.558 -46.4157 3.4996 427.558
1729 1 -48.0574 3.46167 429.488 -48.0574 3.46167 429.488
2014 1 -49.6985 3.42343 431.418 -49.6985 3.42343 431.418
2011 1 -51.3388 3.38494 433.349 -51.3388 3.38494 433.349
1745 1 -38.7527 3.48858 428.118 -38.7527 3.48858 428.118
1742 1 -40.3954 3.45112 430.047 -40.3954 3.45112 430.047
2028 1 -42.0373 3.4133 431.976 -42.0373 3.4133 431.976
2025 1 -43.6785 3.37513 433.905 -43.6785 3.37513 433.905
1427 1 -55.36 2.13513 422.132 -55.36 2.13513 422.132
1424 1 -57.0016 2.09731 424.062 -57.0016 2.09731 424.062
1711 1 -58.6426 2.05913 425.993 -58.6426 2.05913 425.993
2322 1 -38.4813 1.09599 437.36 -38.4813 1.09599 437.36
1750 1 -35.6505 2.02157 427.664 -35.6505 2.02157 427.664
1155 1 -46.0505 2.15723 420.756 -46.0505 2.15723 420.756
1441 1 -47.6935 2.12009 422.686 -47.6935 2.12009 422.686
1438 1 -49.336 2.08267 424.615 -49.336 2.08267 424.615
1725 1 -50.9779 2.04494 426.545 -50.9779 2.04494 426.545
1722 1 -52.6192 2.00688 428.475 -52.6192 2.00688 428.475
1718 1 -54.26 1.96853 430.406 -54.26 1.96853 430.406
2003 1 -55.9002 1.92997 432.337 -55.9002 1.92997 432.337
2000 1 -57.5399 1.89128 434.269 -57.5399 1.89128 434.269
1459 1 -38.3841 2.14368 421.316 -38.3841 2.14368 421.316
1455 1 -40.0277 2.10691 423.244 -40.0277 2.10691 423.244
1452 1 -41.671 2.06985 425.172 -41.671 2.06985 425.172
1737 1 -43.3138 2.03246 427.101 -43.3138 2.03246 427.101
1735 1 -44.956 1.99476 429.03 -44.956 1.99476 429.03
2020 1 -46.5976 1.95673 430.96 -46.5976 1.95673 430.96
2017 1 -48.2384 1.91841 432.89 -48.2384 1.91841 432.89
2034 1 -38.9365 1.94703 431.52 -38.9365 1.94703 431.52
2031 1 -40.5783 1.90917 433.449 -40.5783 1.90917 433.449
2029 1 -41.3989 4.10383 434.413 -41.3989 4.10383 434.413
1146 1 -51.4359 2.89906 420.708 -51.4359 2.89906 420.708
1431 1 -53.0782 2.86167 422.638 -53.0782 2.86167 422.638
1428 1 -54.72 2.82393 424.568 -54.72 2.82393 424.568
1715 1 -56.3612 2.78585 426.499 -56.3612 2.78585 426.499
1712 1 -58.002 2.74748 428.429 -58.002 2.74748 428.429
1708 1 -59.6423 2.70887 430.361 -59.6423 2.70887 430.361
1747 1 -37.2938 1.98451 429.591 -37.2938 1.98451 429.591
1449 1 -43.7688 2.88428 421.264 -43.7688 2.88428 421.264
1445 1 -45.4119 2.84717 423.193 -45.4119 2.84717 423.193
1442 1 -47.0546 2.8098 425.122 -47.0546 2.8098 425.122
1728 1 -48.6967 2.77212 427.051 -48.6967 2.77212 427.051
1726 1 -50.3382 2.73413 428.982 -50.3382 2.73413 428.982
2010 1 -51.9791 2.69584 430.912 -51.9791 2.69584 430.912
2007 1 -53.6194 2.65732 432.843 -53.6194 2.65732 432.843
1456 1 -39.3901 2.79769 425.681 -39.3901 2.79769 425.681
1741 1 -41.0332 2.76044 427.609 -41.0332 2.76044 427.609
1738 1 -42.6756 2.72284 429.538 -42.6756 2.72284 429.538
2024 1 -44.3173 2.68489 431.468 -44.3173 2.68489 431.468
2021 1 -45.9583 2.64663 433.398 -45.9583 2.64663 433.398
2035 1 -38.2988 2.63793 433.957 -38.2988 2.63793 433.957
1754 1 -34.0066 2.0582 425.737 -34.0066 2.0582 425.737
1423 1 -57.6419 1.40871 421.626 -57.6419 1.40871 421.626
1420 1 -59.2832 1.37079 423.557 -59.2832 1.37079 423.557
2044 1 -32.9186 1.90062 434.012 -32.9186 1.90062 434.012
1437 1 -49.9752 1.39329 422.179 -49.9752 1.39329 422.179
1434 1 -51.6175 1.35581 424.109 -51.6175 1.35581 424.109
1721 1 -53.2592 1.31799 426.039 -53.2592 1.31799 426.039
1717 1 -54.9004 1.27985 427.97 -54.9004 1.27985 427.97
1714 1 -56.541 1.24143 429.901 -56.541 1.24143 429.901
1999 1 -58.1812 1.20282 431.832 -58.1812 1.20282 431.832
1997 1 -59.8209 1.16409 433.763 -59.8209 1.16409 433.763
1164 1 -40.6656 1.41627 420.807 -40.6656 1.41627 420.807
1451 1 -42.309 1.37936 422.736 -42.309 1.37936 422.736
1448 1 -43.9521 1.34219 424.665 -43.9521 1.34219 424.665
1734 1 -45.5947 1.30473 426.594 -45.5947 1.30473 426.594
1731 1 -47.2367 1.26695 428.523 -47.2367 1.26695 428.523
2016 1 -48.878 1.22886 430.453 -48.878 1.22886 430.453
2012 1 -50.5187 1.19049 432.384 -50.5187 1.19049 432.384
2009 1 -52.1588 1.1519 434.315 -52.1588 1.1519 434.315
1746 1 -37.9311 1.29344 427.154 -37.9311 1.29344 427.154
1744 1 -39.5741 1.25617 429.082 -39.5741 1.25617 429.082
2030 1 -41.2164 1.21853 431.011 -41.2164 1.21853 431.011
2027 1 -42.858 1.18053 432.94 -42.858 1.18053 432.94
2325 1 -36.8403 1.13411 435.431 -36.8403 1.13411 435.431
1749 1 -36.4722 4.21682 428.627 -36.4722 4.21682 428.627
1425 1 -56.1809 4.33 423.097 -56.1809 4.33 423.097
1736 1 -44.135 4.22738 428.066 -44.135 4.22738 428.066
1142 1 -53.718 2.17258 420.202 -53.718 2.17258 420.202
1720 1 -53.4397 4.20146 429.441 -53.4397 4.20146 429.441
2005 1 -55.0801 4.163 431.372 -55.0801 4.163 431.372
2002 1 -56.7201 4.12436 433.303 -56.7201 4.12436 433.303
1169 1 -37.5622 4.37568 420.353 -37.5622 4.37568 420.353
1723 1 -51.7986 4.23967 427.51 -51.7986 4.23967 427.51
1440 1 -48.5148 4.31515 423.65 -48.5148 4.31515 423.65
1733 1 -45.7769 4.18951 429.995 -45.7769 4.18951 429.995
2018 1 -47.4181 4.15133 431.925 -47.4181 4.15133 431.925
2015 1 -49.0585 4.11288 433.856 -49.0585 4.11288 433.856
2036 1 -38.1153 4.17955 430.555 -38.1153 4.17955 430.555
2032 1 -39.7575 4.14187 432.484 -39.7575 4.14187 432.484
2326 1 -36.2025 1.82508 437.869 -36.2025 1.82508 437.869
1752 1 -34.8286 4.25367 426.7 -34.8286 4.25367 426.7
1457 1 -39.206 4.33906 422.28 -39.206 4.33906 422.28
2043 1 -33.5552 1.20913 431.574 -33.5552 1.20913 431.574
2286 1 -59.1792 1.85254 436.2 -59.1792 1.85254 436.2
2319 1 -40.1214 1.05756 439.29 -40.1214 1.05756 439.29
1436 1 -50.157 4.27757 425.58 -50.157 4.27757 425.58
1422 1 -57.8222 4.29199 425.028 -57.8222 4.29199 425.028
1173 1 -35.2806 0.67559 420.862 -35.2806 0.67559 420.862
2293 1 -55.4371 1.07439 438.177 -55.4371 1.07439 438.177
2289 1 -57.7177 0.346803 437.671 -57.7177 0.346803 437.671
2295 1 -53.9759 3.99662 439.649 -53.9759 3.99662 439.649
1465 1 -34.6435 1.36682 423.299 -34.6435 1.36682 423.299
2315 1 -42.4001 0.328444 438.781 -42.4001 0.328444 438.781
2331 1 -33.74 4.09563 434.976 -33.74 4.09563 434.976
2297 1 -53.1567 1.8023 438.683 -53.1567 1.8023 438.683
2324 1 -37.0228 4.01968 438.833 -37.0228 4.01968 438.833
2306 1 -47.7779 1.06491 438.731 -47.7779 1.06491 438.731
2285 1 -59.3563 0.308135 439.603 -59.3563 0.308135 439.603
1462 1 -36.2875 1.33032 425.226 -36.2875 1.33032 425.226
1751 1 -35.0136 2.7129 430.101 -35.0136 2.7129 430.101
2329 1 -34.5611 1.86308 435.94 -34.5611 1.86308 435.94
2042 1 -34.3768 3.40428 432.538 -34.3768 3.40428 432.538
2041 1 -35.1982 1.17185 433.502 -35.1982 1.17185 433.502
2593 1 -48.5972 3.25922 439.697 -48.5972 3.25922 439.697
2328 1 -34.7442 0.321421 439.342 -34.7442 0.321421 439.342
2301 1 -50.8767 2.53058 439.19 -50.8767 2.53058 439.19
1466 1 -33.8213 3.59865 422.336 -33.8213 3.59865 422.336
2298 1 -52.9785 3.34627 435.28 -52.9785 3.34627 435.28
2321 1 -39.3015 3.29053 438.325 -39.3015 3.29053 438.325
2313 1 -43.8594 1.83247 437.308 -43.8594 1.83247 437.308
2294 1 -54.6177 3.3075 437.211 -54.6177 3.3075 437.211
2304 1 -49.238 2.56941 437.259 -49.238 2.56941 437.259
2300 1 -51.5179 1.84111 436.752 -51.5179 1.84111 436.752
2290 1 -56.8983 2.5799 436.706 -56.8983 2.5799 436.706
2318 1 -40.7603 0.366953 436.851 -40.7603 0.366953 436.851
2327 1 -35.3819 4.05786 436.904 -35.3819 4.05786 436.904
2004 1 -55.2591 2.61864 434.774 -55.2591 2.61864 434.774
2013 1 -49.8785 1.87984 434.821 -49.8785 1.87984 434.821
2288 1 -58.3596 4.08563 435.234 -58.3596 4.08563 435.234
2037 1 -37.4778 0.443105 432.993 -37.4778 0.443105 432.993
1739 1 -42.4925 4.26492 426.137 -42.4925 4.26492 426.137
1753 1 -34.1919 0.517642 429.137 -34.1919 0.517642 429.137
2307 1 -47.5985 2.60812 435.328 -47.5985 2.60812 435.328
2314 1 -43.0395 4.06547 436.343 -43.0395 4.06547 436.343
2040 1 -35.8352 0.480599 431.065 -35.8352 0.480599 431.065
2320 1 -39.94 2.59984 435.886 -39.94 2.59984 435.886
2292 1 -56.0788 0.385548 435.74 -56.0788 0.385548 435.74
2311 1 -45.3189 3.33668 435.835 -45.3189 3.33668 435.835
2302 1 -50.6983 4.07422 435.787 -50.6983 4.07422 435.787
2296 1 -53.7982 1.11317 436.246 -53.7982 1.11317 436.246
1463 1 -36.1027 2.87116 421.826 -36.1027 2.87116 421.826
2287 1 -58.5371 2.54118 438.637 -58.5371 2.54118 438.637
2291 1 -56.2563 3.26874 439.143 -56.2563 3.26874 439.143
2317 1 -41.5803 2.56145 437.816 -41.5803 2.56145 437.816
2038 1 -36.6566 2.67563 432.029 -36.6566 2.67563 432.029
2305 1 -48.4183 0.375054 436.293 -48.4183 0.375054 436.293
2332 1 -33.103 0.359473 437.413 -33.103 0.359473 437.413
1709 1 -59.463 4.25364 426.958 -59.463 4.25364 426.958
1468 1 -32.9991 1.40292 421.373 -32.9991 1.40292 421.373
1454 1 -40.8494 4.30214 424.208 -40.8494 4.30214 424.208
1429 1 -54.5391 4.36763 421.167 -54.5391 4.36763 421.167
1133 1 -59.103 2.91502 420.155 -59.103 2.91502 420.155
1175 1 -34.4585 2.90738 419.899 -34.4585 2.90738 419.899
2616 1 -35.7452 0.973752 443.711 -35.7452 0.973752 443.711
2901 1 -37.383 0.935083 445.642 -37.383 0.935083 445.642
2907 1 -34.2866 3.89748 445.185 -34.2866 3.89748 445.185
3194 1 -35.2829 0.121957 449.556 -35.2829 0.121957 449.556
2587 1 -51.6959 0.297431 440.155 -51.6959 0.297431 440.155
2597 1 -46.3179 3.98814 440.204 -46.3179 3.98814 440.204
2584 1 -53.3336 0.258606 442.087 -53.3336 0.258606 442.087
2581 1 -54.9709 0.219901 444.018 -54.9709 0.219901 444.018
2868 1 -56.6076 0.181425 445.95 -56.6076 0.181425 445.95
2865 1 -58.2441 0.143293 447.881 -58.2441 0.143293 447.881
2601 1 -44.039 0.289769 440.712 -44.039 0.289769 440.712
2598 1 -45.6771 0.251022 442.643 -45.6771 0.251022 442.643
2885 1 -47.3142 0.212292 444.575 -47.3142 0.212292 444.575
2882 1 -48.9506 0.173663 446.506 -48.9506 0.173663 446.506
2879 1 -50.5863 0.135218 448.438 -50.5863 0.135218 448.438
2612 1 -38.0231 0.244426 443.202 -38.0231 0.244426 443.202
2898 1 -39.6608 0.205758 445.133 -39.6608 0.205758 445.133
2895 1 -41.2975 0.167138 447.065 -41.2975 0.167138 447.065
3180 1 -42.9333 0.128653 448.996 -42.9333 0.128653 448.996
2576 1 -57.8945 3.23007 441.075 -57.8945 3.23007 441.075
2574 1 -59.5323 3.1916 443.006 -59.5323 3.1916 443.006
2589 1 -50.2352 3.22038 441.628 -50.2352 3.22038 441.628
2586 1 -51.8725 3.18156 443.56 -51.8725 3.18156 443.56
2874 1 -53.5092 3.14287 445.491 -53.5092 3.14287 445.491
2871 1 -55.1454 3.10441 447.422 -55.1454 3.10441 447.422
3155 1 -56.7812 3.06629 449.354 -56.7812 3.06629 449.354
2607 1 -40.941 3.252 440.255 -40.941 3.252 440.255
2604 1 -42.5796 3.21333 442.186 -42.5796 3.21333 442.186
2600 1 -44.2172 3.17462 444.117 -44.2172 3.17462 444.117
2887 1 -45.8539 3.13598 446.048 -45.8539 3.13598 446.048
2884 1 -47.4899 3.09749 447.98 -47.4899 3.09749 447.98
3168 1 -49.125 3.05924 449.912 -49.125 3.05924 449.912
2900 1 -38.2015 3.12949 446.607 -38.2015 3.12949 446.607
2897 1 -39.8377 3.09093 448.539 -39.8377 3.09093 448.539
2582 1 -54.7949 1.7635 440.615 -54.7949 1.7635 440.615
2579 1 -56.4326 1.72481 442.546 -56.4326 1.72481 442.546
2866 1 -58.07 1.68634 444.478 -58.07 1.68634 444.478
2578 1 -57.0754 1.03566 440.109 -57.0754 1.03566 440.109
2595 1 -47.137 1.75501 441.17 -47.137 1.75501 441.17
2592 1 -48.7746 1.7162 443.101 -48.7746 1.7162 443.101
2880 1 -50.4115 1.67746 445.033 -50.4115 1.67746 445.033
2877 1 -52.0477 1.63885 446.964 -52.0477 1.63885 446.964
2873 1 -53.6833 1.60048 448.895 -53.6833 1.60048 448.895
2609 1 -39.482 1.74818 441.728 -39.482 1.74818 441.728
2606 1 -41.1202 1.70951 443.659 -41.1202 1.70951 443.659
2892 1 -42.7573 1.67085 445.591 -42.7573 1.67085 445.591
2890 1 -44.3936 1.63229 447.522 -44.3936 1.63229 447.522
3174 1 -46.029 1.59392 449.454 -46.029 1.59392 449.454
2618 1 -34.9258 3.20679 442.746 -34.9258 3.20679 442.746
2585 1 -52.5148 2.49174 441.121 -52.5148 2.49174 441.121
2583 1 -54.1523 2.45296 443.053 -54.1523 2.45296 443.053
2870 1 -55.7893 2.41435 444.984 -55.7893 2.41435 444.984
2867 1 -57.4259 2.37603 446.916 -57.4259 2.37603 446.916
2863 1 -59.0622 2.33812 448.847 -59.0622 2.33812 448.847
2599 1 -44.8582 2.48412 441.678 -44.8582 2.48412 441.678
2596 1 -46.4958 2.44538 443.609 -46.4958 2.44538 443.609
2883 1 -48.1325 2.40669 445.54 -48.1325 2.40669 445.54
2881 1 -49.7686 2.36814 447.472 -49.7686 2.36814 447.472
3164 1 -51.4039 2.32982 449.404 -51.4039 2.32982 449.404
2610 1 -38.8421 2.43882 444.168 -38.8421 2.43882 444.168
2896 1 -40.4793 2.40016 446.099 -40.4793 2.40016 446.099
2893 1 -42.1155 2.3616 448.03 -42.1155 2.3616 448.03
3178 1 -43.7508 2.32321 449.962 -43.7508 2.32321 449.962
2575 1 -58.7134 0.997075 442.04 -58.7134 0.997075 442.04
2591 1 -49.4162 1.02607 440.662 -49.4162 1.02607 440.662
2588 1 -51.0539 0.987232 442.594 -51.0539 0.987232 442.594
2876 1 -52.6909 0.948469 444.525 -52.6909 0.948469 444.525
2872 1 -54.3273 0.909881 446.457 -54.3273 0.909881 446.457
2869 1 -55.9633 0.871575 448.388 -55.9633 0.871575 448.388
2605 1 -41.7604 1.01895 441.22 -41.7604 1.01895 441.22
2602 1 -43.3985 0.980247 443.151 -43.3985 0.980247 443.151
2889 1 -45.0357 0.941564 445.083 -45.0357 0.941564 445.083
2886 1 -46.672 0.902988 447.014 -46.672 0.902988 447.014
3170 1 -48.3075 0.864606 448.946 -48.3075 0.864606 448.946
2899 1 -39.0197 0.896461 447.573 -39.0197 0.896461 447.573
3184 1 -40.6554 0.857986 449.505 -40.6554 0.857986 449.505
2580 1 -55.6138 3.95786 441.581 -55.6138 3.95786 441.581
2577 1 -57.2513 3.91927 443.512 -57.2513 3.91927 443.512
2864 1 -58.8885 3.88095 445.444 -58.8885 3.88095 445.444
2862 1 -59.707 1.64821 446.409 -59.707 1.64821 446.409
2594 1 -47.9559 3.94933 442.136 -47.9559 3.94933 442.136
2590 1 -49.5931 3.91054 444.067 -49.5931 3.91054 444.067
2878 1 -51.2297 3.87186 445.998 -51.2297 3.87186 445.998
2875 1 -52.8655 3.83336 447.93 -52.8655 3.83336 447.93
3159 1 -54.5009 3.79515 449.861 -54.5009 3.79515 449.861
2611 1 -38.6625 3.98121 440.763 -38.6625 3.98121 440.763
2608 1 -40.3012 3.94258 442.694 -40.3012 3.94258 442.694
2894 1 -41.9389 3.9039 444.625 -41.9389 3.9039 444.625
2891 1 -43.5756 3.86528 446.556 -43.5756 3.86528 446.556
2888 1 -45.2114 3.8268 448.488 -45.2114 3.8268 448.488
2904 1 -35.924 3.85879 447.116 -35.924 3.85879 447.116
2621 1 -33.2861 3.24526 440.816 -33.2861 3.24526 440.816
2617 1 -35.5644 2.51598 440.307 -35.5644 2.51598 440.307
2614 1 -37.2038 2.47747 442.237 -37.2038 2.47747 442.237
2908 1 -33.6467 0.160618 447.625 -33.6467 0.160618 447.625
2619 1 -34.1061 1.01233 441.781 -34.1061 1.01233 441.781
2906 1 -34.4649 2.35499 448.59 -34.4649 2.35499 448.59
2905 1 -35.1054 1.6644 446.15 -35.1054 1.6644 446.15
2620 1 -33.4674 1.7031 444.22 -33.4674 1.7031 444.22
3190 1 -37.5602 3.82021 449.047 -37.5602 3.82021 449.047
2902 1 -36.7422 1.62575 448.081 -36.7422 1.62575 448.081
2903 1 -36.5642 3.16815 444.676 -36.5642 3.16815 444.676
2615 1 -36.3842 0.283026 441.272 -36.3842 0.283026 441.272
2909 1 -32.8281 2.39373 446.659 -32.8281 2.39373 446.659
3438 1 -59.8803 0.105626 449.812 -222.981 0.105626 449.812
14 1 -51.8928 0.38689 398.948 -51.8928 0.38689 398.948
7 1 -56.3206 3.3403 398.067 -56.3206 3.3403 398.067
25 1 -44.1695 0.386777 399.425 -44.1695 0.386777 399.425
38 1 -36.4369 0.310874 399.923 -36.4369 0.310874 399.923
23 1 -45.803 0.331277 401.343 -45.803 0.331277 401.343
287 1 -49.0745 0.248447 405.18 -49.0745 0.248447 405.18
878 1 -40.2988 0.0719858 414.006 -40.2988 0.0719858 414.006
579 1 -46.3257 0.124795 411.52 -46.3257 0.124795 411.52
585 1 -43.0407 0.19741 407.661 -43.0407 0.19741 407.661
290 1 -47.4397 0.28878 403.257 -47.4397 0.28878 403.257
11 1 -53.4722 0.324445 400.82 -53.4722 0.324445 400.82
595 1 -37.0118 0.144261 410.15 -37.0118 0.144261 410.15
1134 1 -58.9224 0.0313082 416.754 -58.9224 0.0313082 416.754
283 1 -50.713 0.211312 407.108 -50.713 0.211312 407.108
582 1 -44.6831 0.16124 409.591 -44.6831 0.16124 409.591
276 1 -55.1154 0.304663 402.707 -55.1154 0.304663 402.707
569 1 -52.3532 0.175506 409.036 -52.3532 0.175506 409.036
847 1 -57.2801 0.0677731 414.825 -57.2801 0.0677731 414.825
556 1 -60.024 0.198198 408.487 103.077 0.198198 408.487
272 1 -56.7433 0.270466 404.629 -56.7433 0.270466 404.629
3 1 -58.1337 3.34278 399.778 -58.1337 3.34278 399.778