ITEM: TIMESTEP
0
ITEM: NUMBER OF ATOMS
4630
ITEM: BOX BOUNDS xy xz yz pp pp pp
-6.3035987242313730e+01 1.0605501909051372e+02 0.0000000000000000e+00
0.0000000000000000e+00 4.4274527100805940e+00 0.0000000000000000e+00
3.8000000000000000e+02 5.0000000000000000e+02 0.0000000000000000e+00
ITEM: ATOMS id type x y z xu yu zu
7 1 -58.8216 2.89344 398.899 -58.8216 2.89344 398.899
27 1 -45.387 2.18503 399.437 -45.387 2.18503 399.437
36 1 -39.8001 1.44301 399.494 -39.8001 1.44301 399.494
45 1 -34.2171 0.703276 399.555 -34.2171 0.703276 399.555
85 1 -8.67601 0.705132 399.382 -8.67601 0.705132 399.382
94 1 -3.0898 4.39099 399.444 -3.0898 4.39099 399.444
103 1 2.49136 3.65227 399.509 2.49136 3.65227 399.509
112 1 8.0708 2.9141 399.575 8.0708 2.9141 399.575
152 1 33.5894 2.92334 399.409 33.5894 2.92334 399.409
161 1 39.1714 2.18231 399.469 39.1714 2.18231 399.469
170 1 44.749 1.44372 399.531 44.749 1.44372 399.531
227 1 81.4187 4.40006 399.461 81.4187 4.40006 399.461
236 1 87.0022 3.6585 399.515 87.0022 3.6585 399.515
245 1 92.5817 2.91931 399.573 92.5817 2.91931 399.573
5 1 -59.7273 0.6772 399.697 -59.7273 0.6772 399.697
2 1 -61.4987 0.690314 401.49 -61.4987 0.690314 401.49
3 1 -60.643 2.90271 400.585 -60.643 2.90271 400.585
1 1 -62.342 2.87281 402.437 106.749 2.87281 402.437
4 1 -59.9857 3.62187 402.925 -59.9857 3.62187 402.925
9 1 -57.3476 1.34515 400.158 -57.3476 1.34515 400.158
8 1 -58.2211 3.60176 401.12 -58.2211 3.60176 401.12
10 1 -56.7384 2.11172 402.52 -56.7384 2.11172 402.52
6 1 -59.1129 1.40787 401.996 -59.1129 1.40787 401.996
11 1 -55.8826 4.33541 401.599 -55.8826 4.33541 401.599
12 1 -55.0238 2.1601 400.644 -55.0238 2.1601 400.644
16 1 -52.6536 2.85488 401.105 -52.6536 2.85488 401.105
15 1 -53.5193 0.65253 402.093 -53.5193 0.65253 402.093
14 1 -54.1832 4.38965 399.804 -54.1832 4.38965 399.804
17 1 -51.7981 0.656271 400.245 -51.7981 0.656271 400.245
13 1 -54.3741 2.85529 403 -54.3741 2.85529 403
22 1 -48.5729 3.62928 399.846 -48.5729 3.62928 399.846
20 1 -49.4416 1.40806 400.696 -49.4416 1.40806 400.696
19 1 -50.3129 3.59784 401.63 -50.3129 3.59784 401.63
18 1 -51.1603 1.38042 402.577 -51.1603 1.38042 402.577
21 1 -48.8145 2.12768 403.071 -48.8145 2.12768 403.071
23 1 -47.9513 4.35133 402.154 -47.9513 4.35133 402.154
26 1 -45.5826 0.655953 402.624 -45.5826 0.655953 402.624
24 1 -47.102 2.13869 401.217 -47.102 2.13869 401.217
28 1 -44.7257 2.87636 401.72 -44.7257 2.87636 401.72
25 1 -46.2301 4.38327 400.279 -46.2301 4.38327 400.279
29 1 -43.8572 0.649047 400.733 -43.8572 0.649047 400.733
31 1 -42.999 2.87769 399.876 -42.999 2.87769 399.876
34 1 -40.6466 3.64153 400.333 -40.6466 3.64153 400.333
32 1 -42.3636 3.60642 402.208 -42.3636 3.60642 402.208
33 1 -41.5211 1.39829 401.27 -41.5211 1.39829 401.27
30 1 -43.2315 1.38374 403.127 -43.2315 1.38374 403.127
35 1 -39.9998 4.34355 402.681 -39.9998 4.34355 402.681
40 1 -37.4144 2.13719 399.936 -37.4144 2.13719 399.936
37 1 -39.1437 2.1361 401.778 -39.1437 2.1361 401.778
41 1 -36.7814 2.86644 402.268 -36.7814 2.86644 402.268
38 1 -38.2734 4.33575 400.793 -38.2734 4.33575 400.793
39 1 -37.6496 0.644138 403.187 -37.6496 0.644138 403.187
43 1 -35.0632 2.90178 400.395 -35.0632 2.90178 400.395
42 1 -35.938 0.658316 401.331 -35.938 0.658316 401.331
44 1 -34.4176 3.6037 402.743 -34.4176 3.6037 402.743
46 1 -33.5612 1.39628 401.84 -33.5612 1.39628 401.84
47 1 -32.6906 3.59606 400.855 -32.6906 3.59606 400.855
49 1 -31.8316 1.39748 399.998 -31.8316 1.39748 399.998
52 1 -29.4808 2.16209 400.457 -29.4808 2.16209 400.457
50 1 -31.1992 2.12669 402.331 -31.1992 2.12669 402.331
51 1 -30.3557 4.34607 401.394 -30.3557 4.34607 401.394
53 1 -28.8356 2.86387 402.806 -28.8356 2.86387 402.806
54 1 -28.6348 4.39102 399.618 -28.6348 4.39102 399.618
48 1 -32.0676 4.33183 403.249 -32.0676 4.33183 403.249
58 1 -26.2495 0.65764 400.061 -26.2495 0.65764 400.061
59 1 -25.6174 1.38679 402.394 -25.6174 1.38679 402.394
56 1 -27.1085 2.85625 400.918 -27.1085 2.85625 400.918
55 1 -27.9791 0.656445 401.903 -27.9791 0.656445 401.903
60 1 -24.7739 3.6062 401.457 -24.7739 3.6062 401.457
57 1 -26.4859 3.59195 403.313 -26.4859 3.59195 403.313
61 1 -23.8991 1.4222 400.521 -23.8991 1.4222 400.521
63 1 -23.0533 3.65111 399.681 -23.0533 3.65111 399.681
62 1 -23.2541 2.1238 402.869 -23.2541 2.1238 402.869
64 1 -22.3976 4.3438 401.967 -22.3976 4.3438 401.967
65 1 -21.5272 2.11609 400.981 -21.5272 2.11609 400.981
66 1 -20.9046 2.85174 403.376 -20.9046 2.85174 403.376
70 1 -18.3181 0.681693 400.584 -18.3181 0.681693 400.584
68 1 -20.036 0.646527 402.458 -20.036 0.646527 402.458
69 1 -19.1931 2.86571 401.521 -19.1931 2.86571 401.521
67 1 -20.6682 4.34491 400.125 -20.6682 4.34491 400.125
72 1 -17.4741 2.91027 399.744 -17.4741 2.91027 399.744
71 1 -17.6724 1.3834 402.933 -17.6724 1.3834 402.933
75 1 -15.09 3.6048 400.186 -15.09 3.6048 400.186
74 1 -15.9461 1.37612 401.044 -15.9461 1.37612 401.044
73 1 -16.8173 3.60314 402.029 -16.8173 3.60314 402.029
76 1 -14.4545 4.32938 402.516 -14.4545 4.32938 402.516
77 1 -13.6049 2.11869 401.57 -13.6049 2.11869 401.57
348 1 -15.3204 2.10892 403.435 -15.3204 2.10892 403.435
80 1 -11.8625 2.1497 399.788 -11.8625 2.1497 399.788
81 1 -11.243 2.87189 402.097 -11.243 2.87189 402.097
78 1 -12.7327 4.35598 400.638 -12.7327 4.35598 400.638
79 1 -12.1074 0.648597 403.013 -12.1074 0.648597 403.013
83 1 -9.51984 2.9034 400.223 -9.51984 2.9034 400.223
82 1 -10.3928 0.658919 401.161 -10.3928 0.658919 401.161
87 1 -7.14715 3.5967 400.68 -7.14715 3.5967 400.68
84 1 -8.87415 3.60385 402.569 -8.87415 3.60385 402.569
86 1 -8.01654 1.39663 401.666 -8.01654 1.39663 401.666
89 1 -6.28834 1.39788 399.823 -6.28834 1.39788 399.823
90 1 -5.65478 2.12679 402.156 -5.65478 2.12679 402.156
88 1 -6.52338 4.33163 403.074 -6.52338 4.33163 403.074
92 1 -3.93654 2.16204 400.282 -3.93654 2.16204 400.282
93 1 -3.2915 2.86404 402.631 -3.2915 2.86404 402.631
91 1 -4.81162 4.34616 401.219 -4.81162 4.34616 401.219
96 1 -1.564 2.85645 400.744 -1.564 2.85645 400.744
95 1 -2.43494 0.656654 401.729 -2.43494 0.656654 401.729
98 1 -0.704667 0.65792 399.888 -0.704667 0.65792 399.888
100 1 0.770297 3.60698 401.284 0.770297 3.60698 401.284
99 1 -0.0734548 1.38739 402.221 -0.0734548 1.38739 402.221
97 1 -0.942093 3.59239 403.139 -0.942093 3.59239 403.139
101 1 1.64538 1.42326 400.348 1.64538 1.42326 400.348
102 1 2.28945 2.12494 402.697 2.28945 2.12494 402.697
105 1 4.01702 2.11787 400.81 4.01702 2.11787 400.81
104 1 3.14607 4.34519 401.795 3.14607 4.34519 401.795
108 1 5.50679 0.648803 402.288 5.50679 0.648803 402.288
107 1 4.87607 4.34681 399.954 4.87607 4.34681 399.954
106 1 4.63824 2.85364 403.206 4.63824 2.85364 403.206
110 1 7.22534 0.685085 400.415 7.22534 0.685085 400.415
111 1 7.86916 1.38642 402.764 7.86916 1.38642 402.764
109 1 6.35047 2.86865 401.351 6.35047 2.86865 401.351
113 1 8.7256 3.6068 401.862 8.7256 3.6068 401.862
114 1 9.59643 1.37967 400.877 9.59643 1.37967 400.877
116 1 10.4552 3.60861 400.02 10.4552 3.60861 400.02
118 1 11.9292 2.13055 401.418 11.9292 2.13055 401.418
117 1 11.0857 4.338 402.354 11.0857 4.338 402.354
121 1 13.6488 2.17609 399.642 13.6488 2.17609 399.642
120 1 13.4477 0.648123 402.831 13.4477 0.648123 402.831
119 1 12.8039 4.37454 400.481 12.8039 4.37454 400.481
115 1 10.2174 2.11527 403.273 10.2174 2.11527 403.273
122 1 14.3039 2.86858 401.928 14.3039 2.86858 401.928
123 1 15.1745 0.641578 400.943 15.1745 0.641578 400.943
125 1 16.033 2.87049 400.086 16.033 2.87049 400.086
126 1 16.6635 3.59979 402.421 16.6635 3.59979 402.421
127 1 17.5068 1.39245 401.485 17.5068 1.39245 401.485
124 1 15.7954 1.377 403.34 15.7954 1.377 403.34
130 1 19.2254 1.43801 399.708 19.2254 1.43801 399.708
128 1 18.381 3.63648 400.548 18.381 3.63648 400.548
129 1 19.0251 4.33718 402.898 19.0251 4.33718 402.898
131 1 19.881 2.1302 401.994 19.881 2.1302 401.994
132 1 20.7512 4.33065 401.009 20.7512 4.33065 401.009
133 1 21.3725 0.638453 403.406 21.3725 0.638453 403.406
134 1 21.6095 2.13208 400.152 21.6095 2.13208 400.152
136 1 23.083 0.653694 401.551 23.083 0.653694 401.551
135 1 22.2405 2.86122 402.487 22.2405 2.86122 402.487
139 1 24.7994 0.698874 399.772 24.7994 0.698874 399.772
137 1 23.9572 2.8977 400.613 23.9572 2.8977 400.613
138 1 24.6023 3.5984 402.962 24.6023 3.5984 402.962
141 1 26.3273 3.59231 401.073 26.3273 3.59231 401.073
140 1 25.4567 1.39116 402.059 25.4567 1.39116 402.059
142 1 27.1825 1.39359 400.214 27.1825 1.39359 400.214
143 1 27.8175 2.11802 402.546 27.8175 2.11802 402.546
144 1 28.6664 4.33545 401.601 28.6664 4.33545 401.601
145 1 29.5376 2.14571 400.667 29.5376 2.14571 400.667
147 1 30.4059 4.36684 399.816 30.4059 4.36684 399.816
146 1 30.1628 2.86512 403.043 30.1628 2.86512 403.043
150 1 32.7472 0.694135 400.252 32.7472 0.694135 400.252
148 1 31.0263 0.661514 402.126 31.0263 0.661514 402.126
149 1 31.8755 2.87675 401.19 31.8755 2.87675 401.19
153 1 34.2501 3.6142 401.694 34.2501 3.6142 401.694
151 1 33.3935 1.39355 402.598 33.3935 1.39355 402.598
156 1 35.9764 3.61599 399.85 35.9764 3.61599 399.85
154 1 35.1186 1.38734 400.708 35.1186 1.38734 400.708
157 1 36.6103 4.34469 402.183 36.6103 4.34469 402.183
155 1 35.7427 2.12166 403.103 35.7427 2.12166 403.103
158 1 37.4526 2.13712 401.246 37.4526 2.13712 401.246
159 1 38.3266 4.38081 400.309 38.3266 4.38081 400.309
162 1 39.8279 2.87474 401.755 39.8279 2.87474 401.755
160 1 38.9724 0.654354 402.658 38.9724 0.654354 402.658
163 1 40.6979 0.647575 400.769 40.6979 0.647575 400.769
165 1 41.5561 2.87649 399.912 41.5561 2.87649 399.912
164 1 41.3205 1.38285 403.165 41.3205 1.38285 403.165
168 1 43.9048 3.64219 400.371 43.9048 3.64219 400.371
167 1 43.0309 1.3982 401.309 43.0309 1.3982 401.309
166 1 42.1881 3.60563 402.246 42.1881 3.60563 402.246
169 1 44.5501 4.34293 402.721 44.5501 4.34293 402.721
171 1 45.4057 2.13598 401.817 45.4057 2.13598 401.817
174 1 47.1335 2.13796 399.974 47.1335 2.13796 399.974
175 1 47.7655 2.86701 402.308 47.7655 2.86701 402.308
172 1 46.2756 4.33649 400.832 46.2756 4.33649 400.832
173 1 46.898 0.644132 403.228 46.898 0.644132 403.228
177 1 49.4819 2.90376 400.434 49.4819 2.90376 400.434
176 1 48.6082 0.659709 401.371 48.6082 0.659709 401.371
179 1 50.3258 0.705281 399.593 50.3258 0.705281 399.593
181 1 51.8525 3.59799 400.894 51.8525 3.59799 400.894
178 1 50.1273 3.6043 402.783 50.1273 3.6043 402.783
180 1 50.9827 1.39741 401.879 50.9827 1.39741 401.879
183 1 52.7102 1.39945 400.036 52.7102 1.39945 400.036
184 1 53.3424 2.12843 402.37 53.3424 2.12843 402.37
186 1 55.0585 2.16524 400.495 55.0585 2.16524 400.495
187 1 55.7041 2.86566 402.845 55.7041 2.86566 402.845
188 1 55.9021 4.39421 399.655 55.9021 4.39421 399.655
185 1 54.1849 4.34863 401.433 54.1849 4.34863 401.433
182 1 52.4751 4.33296 403.29 52.4751 4.33296 403.29
189 1 56.5594 0.658784 401.941 56.5594 0.658784 401.941
192 1 58.2865 0.660848 400.097 58.2865 0.660848 400.097
194 1 59.7613 3.60997 401.494 59.7613 3.60997 401.494
193 1 58.919 1.38976 402.432 58.919 1.38976 402.432
190 1 57.429 2.8594 400.955 57.429 2.8594 400.955
191 1 58.0518 3.59428 403.351 58.0518 3.59428 403.351
195 1 60.6347 1.42658 400.556 60.6347 1.42658 400.556
197 1 61.478 3.65552 399.716 61.478 3.65552 399.716
199 1 63.0051 2.12064 401.016 63.0051 2.12064 401.016
196 1 61.2807 2.12691 402.906 61.2807 2.12691 402.906
198 1 62.1357 4.34747 402.002 62.1357 4.34747 402.002
200 1 63.6284 2.85547 403.412 63.6284 2.85547 403.412
202 1 64.4953 0.650921 402.492 64.4953 0.650921 402.492
201 1 63.8624 4.34951 400.158 63.8624 4.34951 400.158
206 1 67.0537 2.91662 399.775 67.0537 2.91662 399.775
204 1 66.2106 0.687685 400.616 66.2106 0.687685 400.616
203 1 65.3375 2.87112 401.555 65.3375 2.87112 401.555
205 1 66.857 1.38792 402.966 66.857 1.38792 402.966
207 1 67.7119 3.60844 402.061 67.7119 3.60844 402.061
209 1 69.4382 3.61033 400.217 69.4382 3.61033 400.217
208 1 68.5809 1.38149 401.075 68.5809 1.38149 401.075
211 1 70.9132 2.13158 401.614 70.9132 2.13158 401.614
210 1 70.0717 4.33912 402.551 70.0717 4.33912 402.551
212 1 71.7864 4.37552 400.675 71.7864 4.37552 400.675
214 1 72.6276 2.17666 399.833 72.6276 2.17666 399.833
217 1 75.0113 2.87112 400.273 75.0113 2.87112 400.273
216 1 74.157 0.642409 401.132 74.157 0.642409 401.132
215 1 73.2874 2.86875 402.119 73.2874 2.86875 402.119
213 1 72.434 0.648534 403.024 72.434 0.648534 403.024
218 1 75.6488 3.59532 402.604 75.6488 3.59532 402.604
220 1 77.3672 3.62284 400.722 77.3672 3.62284 400.722
219 1 76.4969 1.38522 401.657 76.4969 1.38522 401.657
222 1 78.2349 1.41652 399.871 78.2349 1.41652 399.871
223 1 78.8576 2.1385 402.18 78.8576 2.1385 402.18
221 1 77.9949 4.34218 403.098 77.9949 4.34218 403.098
224 1 79.706 4.35359 401.243 79.706 4.35359 401.243
225 1 80.577 2.17087 400.304 80.577 2.17087 400.304
229 1 82.9492 2.86397 400.758 82.9492 2.86397 400.758
228 1 82.0815 0.663522 401.745 82.0815 0.663522 401.745
226 1 81.2256 2.8704 402.649 81.2256 2.8704 402.649
231 1 83.8064 0.66516 399.899 83.8064 0.66516 399.899
234 1 86.1576 1.42957 400.356 86.1576 1.42957 400.356
233 1 85.2841 3.61349 401.294 85.2841 3.61349 401.294
235 1 86.8055 2.13085 402.704 86.8055 2.13085 402.704
232 1 84.4426 1.39379 402.232 84.4426 1.39379 402.232
230 1 83.5756 3.59832 403.152 83.5756 3.59832 403.152
241 1 90.0216 0.654298 402.289 90.0216 0.654298 402.289
238 1 88.5298 2.12371 400.814 88.5298 2.12371 400.814
240 1 89.3875 4.3526 399.956 89.3875 4.3526 399.956
237 1 87.6604 4.3511 401.8 87.6604 4.3511 401.8
239 1 89.1546 2.85917 403.209 89.1546 2.85917 403.209
242 1 90.8639 2.87405 401.352 90.8639 2.87405 401.352
243 1 91.7373 0.690345 400.414 91.7373 0.690345 400.414
247 1 94.1088 1.38425 400.873 94.1088 1.38425 400.873
246 1 93.2396 3.61168 401.859 93.2396 3.61168 401.859
244 1 92.3844 1.39148 402.762 92.3844 1.39148 402.762
254 1 98.1583 2.17765 399.633 98.1583 2.17765 399.633
249 1 94.9669 3.61307 400.015 94.9669 3.61307 400.015
253 1 97.9634 0.652126 402.822 97.9634 0.652126 402.822
251 1 96.442 2.13401 401.411 96.442 2.13401 401.411
252 1 97.3164 4.37711 400.474 97.3164 4.37711 400.474
250 1 95.6004 4.34224 402.348 95.6004 4.34224 402.348
248 1 94.7332 2.11993 403.268 94.7332 2.11993 403.268
258 1 100.542 2.86931 400.074 100.542 2.86931 400.074
255 1 98.8172 2.87135 401.918 98.8172 2.87135 401.918
259 1 101.174 3.60789 402.413 101.174 3.60789 402.413
260 1 102.016 1.40295 401.484 102.016 1.40295 401.484
256 1 99.6883 0.643051 400.932 99.6883 0.643051 400.932
257 1 100.311 1.38481 403.331 100.311 1.38481 403.331
263 1 103.718 1.44204 399.722 103.718 1.44204 399.722
261 1 102.873 3.6485 400.543 102.873 3.6485 400.543
264 1 104.417 2.1331 401.957 104.417 2.1331 401.957
265 1 105.26 4.32953 400.994 105.26 4.32953 400.994
262 1 103.547 4.34271 402.875 103.547 4.34271 402.875
266 1 105.898 0.641411 403.381 105.898 0.641411 403.381
268 1 -61.6924 3.59167 404.816 -61.6924 3.59167 404.816
271 1 -60.1949 2.10614 406.263 -60.1949 2.10614 406.263
270 1 -60.8377 1.39172 403.867 -60.8377 1.39172 403.867
267 1 -62.5495 1.3683 405.762 -62.5495 1.3683 405.762
272 1 -59.3399 4.33068 405.321 -59.3399 4.33068 405.321
269 1 -61.053 4.30996 407.207 -61.053 4.30996 407.207
277 1 -56.9751 0.633721 405.827 -56.9751 0.633721 405.827
274 1 -58.4801 2.12544 404.378 -58.4801 2.12544 404.378
278 1 -56.1081 2.84888 404.886 -56.1081 2.84888 404.886
275 1 -57.8355 2.8405 406.764 -57.8355 2.8405 406.764
276 1 -57.6153 4.33981 403.457 -57.6153 4.33981 403.457
279 1 -55.473 3.57005 407.269 -55.473 3.57005 407.269
280 1 -55.2436 0.636812 403.955 -55.2436 0.636812 403.955
286 1 -52.0251 3.58588 403.498 -52.0251 3.58588 403.498
282 1 -53.7456 3.57767 405.388 -53.7456 3.57767 405.388
284 1 -52.8826 1.37067 404.455 -52.8826 1.37067 404.455
281 1 -54.6102 1.36081 406.332 -54.6102 1.36081 406.332
285 1 -52.2493 2.09417 406.836 -52.2493 2.09417 406.836
291 1 -49.0295 0.624835 406.396 -49.0295 0.624835 406.396
288 1 -50.5277 2.10962 404.955 -50.5277 2.10962 404.955
292 1 -48.1697 2.84788 405.455 -48.1697 2.84788 405.455
287 1 -51.3886 4.31356 405.892 -51.3886 4.31356 405.892
290 1 -49.6715 4.32974 404.012 -49.6715 4.32974 404.012
294 1 -47.3078 0.643452 404.516 -47.3078 0.643452 404.516
297 1 -45.8095 3.58143 405.958 -45.8095 3.58143 405.958
296 1 -46.4506 2.86257 403.576 -46.4506 2.86257 403.576
298 1 -44.9487 1.37474 405.014 -44.9487 1.37474 405.014
295 1 -46.6696 1.36028 406.898 -46.6696 1.36028 406.898
300 1 -44.0875 3.59626 404.081 -44.0875 3.59626 404.081
306 1 -40.8681 2.12113 403.634 -40.8681 2.12113 403.634
302 1 -42.588 2.10738 405.514 -42.588 2.10738 405.514
304 1 -41.7239 4.33006 404.574 -41.7239 4.33006 404.574
301 1 -43.4475 4.31495 406.458 -43.4475 4.31495 406.458
305 1 -41.0876 0.620661 406.958 -41.0876 0.620661 406.958
307 1 -40.2279 2.84128 406.018 -40.2279 2.84128 406.018
310 1 -38.5061 2.85659 404.14 -38.5061 2.85659 404.14
312 1 -37.0066 1.36799 405.574 -37.0066 1.36799 405.574
311 1 -37.8663 3.57538 406.518 -37.8663 3.57538 406.518
308 1 -39.3665 0.634822 405.073 -39.3665 0.634822 405.073
313 1 -36.1425 3.59054 404.635 -36.1425 3.59054 404.635
315 1 -35.2861 1.38147 403.695 -35.2861 1.38147 403.695
316 1 -34.6466 2.10185 406.079 -34.6466 2.10185 406.079
317 1 -33.7851 4.32267 405.135 -33.7851 4.32267 405.135
314 1 -35.5065 4.30875 407.019 -35.5065 4.30875 407.019
319 1 -32.9243 2.11687 404.202 -32.9243 2.11687 404.202
320 1 -32.285 2.83584 406.581 -32.285 2.83584 406.581
324 1 -29.7043 0.641684 403.758 -29.7043 0.641684 403.758
321 1 -31.4251 0.628323 405.637 -31.4251 0.628323 405.637
322 1 -30.5608 2.85079 404.698 -30.5608 2.85079 404.698
323 1 -29.9252 3.5691 407.082 -29.9252 3.5691 407.082
325 1 -29.0651 1.36211 406.142 -29.0651 1.36211 406.142
328 1 -27.3426 1.37701 404.265 -27.3426 1.37701 404.265
326 1 -28.2035 3.58286 405.198 -28.2035 3.58286 405.198
329 1 -26.7036 2.09603 406.644 -26.7036 2.09603 406.644
330 1 -25.8436 4.3159 405.7 -25.8436 4.3159 405.7
331 1 -24.9793 2.11085 404.761 -24.9793 2.11085 404.761
337 1 -21.7612 0.636899 404.329 -21.7612 0.636899 404.329
334 1 -23.4837 0.622149 406.206 -23.4837 0.622149 406.206
335 1 -22.6221 2.84281 405.262 -22.6221 2.84281 405.262
333 1 -24.1227 4.32915 403.821 -24.1227 4.32915 403.821
338 1 -21.1222 1.35594 406.708 -21.1222 1.35594 406.708
332 1 -24.3439 2.82921 407.146 -24.3439 2.82921 407.146
340 1 -19.3977 1.37059 404.825 -19.3977 1.37059 404.825
342 1 -18.5416 3.58873 403.885 -18.5416 3.58873 403.885
339 1 -20.2623 3.5757 405.764 -20.2623 3.5757 405.764
344 1 -17.0399 2.10154 405.324 -17.0399 2.10154 405.324
343 1 -17.9024 4.30873 406.269 -17.9024 4.30873 406.269
341 1 -18.7624 2.0887 407.209 -18.7624 2.0887 407.209
347 1 -15.5437 0.616445 406.774 -15.5437 0.616445 406.774
349 1 -14.6837 2.83655 405.83 -14.6837 2.83655 405.83
346 1 -16.1796 4.32234 404.391 -16.1796 4.32234 404.391
350 1 -13.8229 0.631977 404.894 -13.8229 0.631977 404.894
351 1 -13.1847 1.35283 407.278 -13.1847 1.35283 407.278
353 1 -12.3243 3.57425 406.337 -12.3243 3.57425 406.337
352 1 -12.9654 2.85132 403.952 -12.9654 2.85132 403.952
354 1 -11.464 1.36935 405.397 -11.464 1.36935 405.397
356 1 -10.6011 3.59194 404.458 -10.6011 3.59194 404.458
358 1 -9.74306 1.38323 403.52 -9.74306 1.38323 403.52
357 1 -9.96405 4.3091 406.842 -9.96405 4.3091 406.842
363 1 -6.74145 2.83578 406.405 -6.74145 2.83578 406.405
359 1 -9.10346 2.10246 405.903 -9.10346 2.10246 405.903
362 1 -7.38005 2.11682 404.027 -7.38005 2.11682 404.027
360 1 -8.2419 4.32296 404.959 -8.2419 4.32296 404.959
364 1 -5.88133 0.628051 405.462 -5.88133 0.628051 405.462
368 1 -4.16026 0.641632 403.583 -4.16026 0.641632 403.583
366 1 -5.01663 2.85061 404.523 -5.01663 2.85061 404.523
369 1 -3.52158 1.36197 405.968 -3.52158 1.36197 405.968
367 1 -4.38174 3.56889 406.907 -4.38174 3.56889 406.907
370 1 -2.65982 3.58294 405.024 -2.65982 3.58294 405.024
372 1 -1.79896 1.37727 404.091 -1.79896 1.37727 404.091
376 1 0.563956 2.1115 404.588 0.563956 2.1115 404.588
373 1 -1.16051 2.09621 406.471 -1.16051 2.09621 406.471
374 1 -0.300489 4.31632 405.527 -0.300489 4.31632 405.527
379 1 2.05872 0.623017 406.034 2.05872 0.623017 406.034
378 1 1.4206 4.33003 403.649 1.4206 4.33003 403.649
377 1 1.19858 2.82981 406.974 1.19858 2.82981 406.974
383 1 4.41943 1.35737 406.538 4.41943 1.35737 406.538
380 1 2.92045 2.84398 405.09 2.92045 2.84398 405.09
382 1 3.7814 0.638369 404.158 3.7814 0.638369 404.158
384 1 5.27942 3.57753 405.594 5.27942 3.57753 405.594
385 1 6.14384 1.37277 404.655 6.14384 1.37277 404.655
387 1 7.00043 3.59142 403.716 7.00043 3.59142 403.716
388 1 7.63825 4.3118 406.102 7.63825 4.3118 406.102
386 1 6.77816 2.09108 407.041 6.77816 2.09108 407.041
389 1 8.49989 2.10538 405.158 8.49989 2.10538 405.158
391 1 9.36071 4.32731 404.225 9.36071 4.32731 404.225
392 1 9.99858 0.618797 406.605 9.99858 0.618797 406.605
393 1 10.8584 2.83903 405.662 10.8584 2.83903 405.662
394 1 11.7227 0.634344 404.723 11.7227 0.634344 404.723
396 1 12.5791 2.85308 403.783 12.5791 2.85308 403.783
397 1 13.2169 3.57335 406.169 13.2169 3.57335 406.169
395 1 12.357 1.35258 407.108 12.357 1.35258 407.108
398 1 14.0784 1.36698 405.225 14.0784 1.36698 405.225
400 1 14.939 3.58896 404.292 14.939 3.58896 404.292
401 1 15.5769 4.30782 406.672 15.5769 4.30782 406.672
402 1 16.4366 2.10063 405.729 16.4366 2.10063 405.729
403 1 17.3007 4.32341 404.79 17.3007 4.32341 404.79
405 1 18.1569 2.11472 403.85 18.1569 2.11472 403.85
406 1 18.7949 2.8349 406.236 18.7949 2.8349 406.236
409 1 20.5165 2.85047 404.359 20.5165 2.85047 404.359
410 1 21.1548 3.56923 406.739 21.1548 3.56923 406.739
407 1 19.6561 0.628497 405.292 19.6561 0.628497 405.292
404 1 17.9351 0.61412 407.175 17.9351 0.61412 407.175
412 1 22.8782 3.58474 404.855 22.8782 3.58474 404.855
411 1 22.0141 1.36198 405.795 22.0141 1.36198 405.795
415 1 24.3724 2.0955 406.301 24.3724 2.0955 406.301
414 1 23.7338 1.37591 403.915 23.7338 1.37591 403.915
416 1 25.2343 4.31615 405.355 25.2343 4.31615 405.355
413 1 23.5129 4.30251 407.241 23.5129 4.30251 407.241
418 1 26.0939 2.10992 404.421 26.0939 2.10992 404.421
419 1 26.7295 2.83115 406.806 26.7295 2.83115 406.806
420 1 26.9524 4.32454 403.466 26.9524 4.32454 403.466
421 1 27.5889 0.624268 405.862 27.5889 0.624268 405.862
422 1 28.4489 2.84759 404.926 28.4489 2.84759 404.926
424 1 29.3057 0.64 403.983 29.3057 0.64 403.983
426 1 30.8064 3.58526 405.428 30.8064 3.58526 405.428
425 1 29.9468 1.36232 406.369 29.9468 1.36232 406.369
430 1 32.5256 3.60002 403.549 32.5256 3.60002 403.549
428 1 31.6684 1.38081 404.489 31.6684 1.38081 404.489
429 1 32.3056 2.09741 406.873 32.3056 2.09741 406.873
432 1 34.0261 2.11207 404.989 34.0261 2.11207 404.989
431 1 33.1654 4.31863 405.933 33.1654 4.31863 405.933
435 1 35.5261 0.624669 406.435 35.5261 0.624669 406.435
436 1 36.3853 2.84481 405.491 36.3853 2.84481 405.491
434 1 34.887 4.33379 404.056 34.887 4.33379 404.056
440 1 38.1046 2.85914 403.611 38.1046 2.85914 403.611
438 1 37.2491 0.640276 404.551 37.2491 0.640276 404.551
439 1 37.8846 1.35789 406.937 37.8846 1.35789 406.937
442 1 39.6048 1.37264 405.051 39.6048 1.37264 405.051
441 1 38.7439 3.5788 405.996 38.7439 3.5788 405.996
444 1 40.4647 3.59476 404.118 40.4647 3.59476 404.118
446 1 41.9631 2.10602 405.554 41.9631 2.10602 405.554
445 1 41.104 4.31302 406.498 41.104 4.31302 406.498
450 1 43.6823 2.12036 403.674 43.6823 2.12036 403.674
451 1 44.3215 2.84008 406.059 44.3215 2.84008 406.059
448 1 42.8266 4.32896 404.614 42.8266 4.32896 404.614
449 1 43.4622 0.619101 406.999 43.4622 0.619101 406.999
452 1 45.1823 0.633865 405.114 45.1823 0.633865 405.114
454 1 46.0422 2.85598 404.181 46.0422 2.85598 404.181
457 1 48.404 3.59023 404.676 48.404 3.59023 404.676
455 1 46.6815 3.57427 406.561 46.6815 3.57427 406.561
456 1 47.5406 1.36727 405.617 47.5406 1.36727 405.617
459 1 49.2596 1.38168 403.736 49.2596 1.38168 403.736
458 1 49.0397 4.3078 407.062 49.0397 4.3078 407.062
460 1 49.8989 2.10133 406.122 49.8989 2.10133 406.122
463 1 51.6194 2.1173 404.243 51.6194 2.1173 404.243
461 1 50.7596 4.3226 405.177 50.7596 4.3226 405.177
464 1 52.2588 2.83553 406.623 52.2588 2.83553 406.623
465 1 53.1178 0.628551 405.679 53.1178 0.628551 405.679
468 1 54.8366 0.643023 403.798 54.8366 0.643023 403.798
466 1 53.9811 2.85154 404.738 53.9811 2.85154 404.738
469 1 55.4761 1.36261 406.183 55.4761 1.36261 406.183
467 1 54.617 3.56905 407.124 54.617 3.56905 407.124
470 1 56.3366 3.58389 405.238 56.3366 3.58389 405.238
472 1 57.1963 1.3786 404.305 57.1963 1.3786 404.305
475 1 59.558 2.11281 404.8 59.558 2.11281 404.8
473 1 57.836 2.09679 406.684 57.836 2.09679 406.684
474 1 58.6948 4.31727 405.74 58.6948 4.31727 405.74
477 1 60.4133 4.33174 403.859 60.4133 4.33174 403.859
481 1 62.773 0.63981 404.365 62.773 0.63981 404.365
478 1 61.0531 0.623847 406.244 61.0531 0.623847 406.244
479 1 61.9135 2.84511 405.299 61.9135 2.84511 405.299
482 1 63.413 1.358 406.745 63.413 1.358 406.745
476 1 60.1941 2.8303 407.185 60.1941 2.8303 407.185
483 1 64.2717 3.57845 405.801 64.2717 3.57845 405.801
486 1 65.9899 3.59284 403.919 65.9899 3.59284 403.919
488 1 67.4903 2.10615 405.359 67.4903 2.10615 405.359
484 1 65.1347 1.37394 404.86 65.1347 1.37394 404.86
487 1 66.6301 4.31241 406.304 66.6301 4.31241 406.304
485 1 65.7713 2.09146 407.245 65.7713 2.09146 407.245
490 1 68.3498 4.32824 404.425 68.3498 4.32824 404.425
493 1 69.8487 2.83934 405.86 69.8487 2.83934 405.86
491 1 68.9902 0.619002 406.804 68.9902 0.619002 406.804
494 1 70.7118 0.634761 404.919 70.7118 0.634761 404.919
492 1 69.2047 2.11631 403.471 69.2047 2.11631 403.471
496 1 71.5664 2.85346 403.978 71.5664 2.85346 403.978
497 1 72.2074 3.57261 406.362 72.2074 3.57261 406.362
500 1 73.927 3.5872 404.481 73.927 3.5872 404.481
498 1 73.0684 1.36592 405.416 73.0684 1.36592 405.416
502 1 74.7846 1.37439 403.524 74.7846 1.37439 403.524
501 1 74.565 4.30805 406.865 74.565 4.30805 406.865
503 1 75.4235 2.10125 405.92 75.4235 2.10125 405.92
506 1 77.1386 2.11706 404.039 77.1386 2.11706 404.039
507 1 77.782 2.83916 406.424 77.782 2.83916 406.424
504 1 76.2827 4.32463 404.982 76.2827 4.32463 404.982
508 1 78.6407 0.6347 405.482 78.6407 0.6347 405.482
510 1 79.502 2.85772 404.542 79.502 2.85772 404.542
512 1 80.3584 0.649449 403.602 80.3584 0.649449 403.602
514 1 81.8605 3.58886 405.04 81.8605 3.58886 405.04
516 1 82.7207 1.3831 404.106 82.7207 1.3831 404.106
513 1 81.0005 1.36797 405.985 81.0005 1.36797 405.985
511 1 80.1415 3.57417 406.925 80.1415 3.57417 406.925
517 1 83.3619 2.10143 406.484 83.3619 2.10143 406.484
523 1 86.5799 0.628087 406.042 86.5799 0.628087 406.042
520 1 85.0836 2.11695 404.599 85.0836 2.11695 404.599
518 1 84.2205 4.32153 405.539 84.2205 4.32153 405.539
522 1 85.9383 4.33572 403.658 85.9383 4.33572 403.658
521 1 85.7212 2.83469 406.983 85.7212 2.83469 406.983
526 1 88.2993 0.643832 404.163 88.2993 0.643832 404.163
528 1 89.7993 3.58273 405.597 89.7993 3.58273 405.597
524 1 87.4401 2.84929 405.097 87.4401 2.84929 405.097
529 1 90.6621 1.37802 404.656 90.6621 1.37802 404.656
527 1 88.9408 1.36242 406.542 88.9408 1.36242 406.542
536 1 94.5198 0.624243 406.6 94.5198 0.624243 406.6
531 1 91.5173 3.59662 403.716 91.5173 3.59662 403.716
533 1 93.0187 2.11053 405.155 93.0187 2.11053 405.155
532 1 92.1586 4.317 406.1 92.1586 4.317 406.1
535 1 93.8782 4.33231 404.221 93.8782 4.33231 404.221
530 1 91.3 2.09621 407.041 91.3 2.09621 407.041
538 1 96.2412 0.639494 404.715 96.2412 0.639494 404.715
541 1 97.7377 3.58002 406.159 97.7377 3.58002 406.159
540 1 97.0959 2.85774 403.775 97.0959 2.85774 403.775
537 1 95.3782 2.84439 405.656 95.3782 2.84439 405.656
539 1 96.8793 1.35897 407.1 96.8793 1.35897 407.1
546 1 100.962 2.10776 405.71 100.962 2.10776 405.71
544 1 99.456 3.5962 404.282 99.456 3.5962 404.282
542 1 98.5977 1.37397 405.215 98.5977 1.37397 405.215
547 1 101.824 4.33061 404.77 101.824 4.33061 404.77
545 1 100.102 4.31469 406.656 100.102 4.31469 406.656
553 1 105.042 2.85383 404.325 105.042 2.85383 404.325
550 1 103.322 2.83954 406.21 103.322 2.83954 406.21
554 1 105.682 3.57406 406.707 105.682 3.57406 406.707
549 1 102.685 2.12191 403.824 102.685 2.12191 403.824
551 1 104.182 0.632841 405.264 104.182 0.632841 405.264
548 1 102.462 0.619162 407.153 102.462 0.619162 407.153
560 1 -60.4125 0.600742 409.593 -60.4125 0.600742 409.593
558 1 -61.9112 2.08742 408.15 -61.9112 2.08742 408.15
562 1 -59.5532 2.82303 408.65 -59.5532 2.82303 408.65
559 1 -61.2717 2.80624 410.536 -61.2717 2.80624 410.536
556 1 -62.7708 4.29303 409.093 -62.7708 4.29303 409.093
273 1 -58.695 0.618248 407.708 -58.695 0.618248 407.708
565 1 -57.1944 3.55696 409.151 -57.1944 3.55696 409.151
568 1 -55.6948 2.06921 410.596 -55.6948 2.06921 410.596
567 1 -56.3348 1.35078 408.21 -56.3348 1.35078 408.21
564 1 -58.0539 1.33529 410.094 -58.0539 1.33529 410.094
563 1 -58.9131 3.54088 411.036 -58.9131 3.54088 411.036
573 1 -52.474 0.596063 410.158 -52.474 0.596063 410.158
571 1 -53.9736 2.08271 408.715 -53.9736 2.08271 408.715
283 1 -53.1116 4.30173 407.774 -53.1116 4.30173 407.774
569 1 -54.8346 4.28997 409.654 -54.8346 4.28997 409.654
574 1 -51.6125 2.81648 409.219 -51.6125 2.81648 409.219
572 1 -53.3348 2.80305 411.099 -53.3348 2.80305 411.099
576 1 -50.7512 0.609163 408.278 -50.7512 0.609163 408.278
578 1 -49.252 3.55107 409.721 -49.252 3.55107 409.721
289 1 -49.8898 2.83074 407.338 -49.8898 2.83074 407.338
580 1 -48.391 1.34457 408.78 -48.391 1.34457 408.78
577 1 -50.1132 1.33018 410.661 -50.1132 1.33018 410.661
293 1 -47.5303 3.56614 407.84 -47.5303 3.56614 407.84
299 1 -44.309 2.09351 407.398 -44.309 2.09351 407.398
583 1 -46.0305 2.07886 409.281 -46.0305 2.07886 409.281
585 1 -45.1697 4.30003 408.34 -45.1697 4.30003 408.34
582 1 -46.8914 4.28524 410.222 -46.8914 4.28524 410.222
586 1 -44.531 0.591502 410.723 -44.531 0.591502 410.723
589 1 -42.8093 0.606102 408.841 -42.8093 0.606102 408.841
591 1 -41.3101 3.54604 410.283 -41.3101 3.54604 410.283
303 1 -41.9489 2.82681 407.899 -41.9489 2.82681 407.899
587 1 -43.6703 2.81244 409.782 -43.6703 2.81244 409.782
592 1 -40.4491 1.33962 409.342 -40.4491 1.33962 409.342
309 1 -38.7275 1.35399 407.458 -38.7275 1.35399 407.458