ITEM: TIMESTEP
0
ITEM: NUMBER OF ATOMS
4630
ITEM: BOX BOUNDS xy xz yz pp pp pp
-6.4168838957436137e+01 1.0718787080563614e+02 0.0000000000000000e+00
0.0000000000000000e+00 4.4274527100805940e+00 0.0000000000000000e+00
3.8000000000000000e+02 5.0000000000000000e+02 0.0000000000000000e+00
ITEM: ATOMS id type x y z xu yu zu
27 1 -46.2326 1.9486 399.768 -46.2326 1.9486 399.768
36 1 -40.5776 1.20819 399.828 -40.5776 1.20819 399.828
31 1 -43.8316 2.64733 400.207 -43.8316 2.64733 400.207
22 1 -49.4602 3.40038 400.171 -49.4602 3.40038 400.171
20 1 -50.3548 1.17748 401.01 -50.3548 1.17748 401.01
40 1 -38.1784 1.908 400.268 -38.1784 1.908 400.268
34 1 -41.4489 3.4064 400.655 -41.4489 3.4064 400.655
17 1 -52.7416 0.428226 400.568 -52.7416 0.428226 400.568
9 1 -58.3663 1.12227 400.475 -58.3663 1.12227 400.475
43 1 -35.7963 2.66787 400.717 -35.7963 2.66787 400.717
12 1 -56.0084 1.92693 400.953 -56.0084 1.92693 400.953
5 1 -60.7597 0.436656 400.013 -60.7597 0.436656 400.013
29 1 -44.7007 0.418752 401.056 -44.7007 0.418752 401.056
853 1 -57.8081 2.63385 415.051 -57.8081 2.63385 415.051
873 1 -46.4989 1.15881 415.186 -46.4989 1.15881 415.186
865 1 -50.637 0.419836 416.55 -50.637 0.419836 416.55
1174 1 -37.8086 1.89203 418.113 -37.8086 1.89203 418.113
883 1 -40.8434 0.419941 415.251 -40.8434 0.419941 415.251
863 1 -52.1549 1.89743 415.118 -52.1549 1.89743 415.118
315 1 -36.0241 1.17163 403.991 -36.0241 1.17163 403.991
307 1 -41.0299 2.64503 406.295 -41.0299 2.64503 406.295
1150 1 -52.3827 0.41714 418.415 -52.3827 0.41714 418.415
855 1 -56.2906 1.15658 416.484 -56.2906 1.15658 416.484
310 1 -39.2839 2.64947 404.434 -39.2839 2.64947 404.434
871 1 -47.3724 3.37164 416.118 -47.3724 3.37164 416.118
16 1 -53.6112 2.62661 401.417 -53.6112 2.62661 401.417
309 1 -39.5119 1.16747 407.724 -39.5119 1.16747 407.724
1156 1 -49.1191 3.36959 417.982 -49.1191 3.36959 417.982
867 1 -49.7638 2.63465 415.618 -49.7638 2.63465 415.618
1159 1 -46.728 4.10663 418.482 -46.728 4.10663 418.482
1168 1 -41.0726 3.36773 418.547 -41.0726 3.36773 418.547
1170 1 -40.1993 1.15498 417.615 -40.1993 1.15498 417.615
594 1 -40.385 3.37989 408.658 -40.385 3.37989 408.658
37 1 -39.928 1.91527 402.096 -39.928 1.91527 402.096
851 1 -58.6803 0.418344 415.985 -58.6803 0.418344 415.985
857 1 -55.4182 3.372 415.551 -55.4182 3.372 415.551
592 1 -41.2579 1.16503 409.591 -41.2579 1.16503 409.591
849 1 -59.5526 2.63036 416.918 -59.5526 2.63036 416.918
877 1 -44.1077 1.89571 415.685 -44.1077 1.89571 415.685
1143 1 -57.163 3.36862 417.417 -57.163 3.36862 417.417
1140 1 -58.9077 3.36533 419.283 -58.9077 3.36533 419.283
845 1 -61.9422 1.8921 416.419 -61.9422 1.8921 416.419
875 1 -44.9812 4.10853 416.617 -44.9812 4.10853 416.617
886 1 -39.0969 0.422079 413.386 -39.0969 0.422079 413.386
891 1 -35.8334 3.37419 412.951 -35.8334 3.37419 412.951
39 1 -38.4155 0.429646 403.487 -38.4155 0.429646 403.487
1177 1 -36.2912 0.414357 419.545 -36.2912 0.414357 419.545
1167 1 -41.9459 1.15304 419.48 -41.9459 1.15304 419.48
8 1 -59.2449 3.376 401.428 -59.2449 3.376 401.428
869 1 -48.2458 1.15695 417.05 -48.2458 1.15695 417.05
1136 1 -61.2974 2.62715 418.785 -61.2974 2.62715 418.785
1162 1 -45.2102 2.62885 419.913 -45.2102 2.62885 419.913
15 1 -54.4871 0.433149 402.399 -54.4871 0.433149 402.399
280 1 -56.2381 0.427078 404.237 -56.2381 0.427078 404.237
277 1 -57.9974 0.436456 406.091 -57.9974 0.436456 406.091
273 1 -59.7453 0.433134 407.951 -59.7453 0.433134 407.951
560 1 -61.4877 0.426645 409.819 -61.4877 0.426645 409.819
557 1 -63.2315 0.422153 411.688 -63.2315 0.422153 411.688
26 1 -46.4485 0.438429 402.928 -46.4485 0.438429 402.928
294 1 -48.199 0.437261 404.801 -48.199 0.437261 404.801
291 1 -49.9465 0.429711 406.663 -49.9465 0.429711 406.663
576 1 -51.6939 0.426525 408.527 -51.6939 0.426525 408.527
573 1 -53.4433 0.426325 410.389 -53.4433 0.426325 410.389
570 1 -55.1907 0.425006 412.252 -55.1907 0.425006 412.252
854 1 -56.9358 0.421896 414.118 -56.9358 0.421896 414.118
305 1 -41.9016 0.430467 407.227 -41.9016 0.430467 407.227
589 1 -43.6485 0.428077 409.093 -43.6485 0.428077 409.093
586 1 -45.3955 0.425672 410.958 -45.3955 0.425672 410.958
872 1 -47.1427 0.423614 412.823 -47.1427 0.423614 412.823
599 1 -37.3506 0.424463 411.52 -37.3506 0.424463 411.52
1132 1 -63.6871 1.88908 418.286 -63.6871 1.88908 418.286
4 1 -61.0435 3.40532 403.21 -61.0435 3.40532 403.21
268 1 -62.779 3.38527 405.076 -62.779 3.38527 405.076
1152 1 -51.51 2.63228 417.483 -51.51 2.63228 417.483
19 1 -51.2386 3.37115 401.93 -51.2386 3.37115 401.93
286 1 -52.9753 3.37289 403.786 -52.9753 3.37289 403.786
282 1 -54.7228 3.37773 405.66 -54.7228 3.37773 405.66
279 1 -56.4778 3.3821 407.522 -56.4778 3.3821 407.522
565 1 -58.2265 3.38141 409.385 -58.2265 3.38141 409.385
563 1 -59.9705 3.37685 411.252 -59.9705 3.37685 411.252
846 1 -61.7145 3.37262 413.12 -61.7145 3.37262 413.12
32 1 -43.1867 3.38421 402.518 -43.1867 3.38421 402.518
300 1 -44.9359 3.38746 404.374 -44.9359 3.38746 404.374
297 1 -46.684 3.38432 406.232 -46.684 3.38432 406.232
293 1 -48.4301 3.38099 408.096 -48.4301 3.38099 408.096
578 1 -50.1773 3.37814 409.96 -50.1773 3.37814 409.96
575 1 -51.9257 3.37678 411.822 -51.9257 3.37678 411.822
860 1 -53.6729 3.37496 413.686 -53.6729 3.37496 413.686
591 1 -42.1314 3.37751 410.524 -42.1314 3.37751 410.524
588 1 -43.8781 3.37535 412.389 -43.8781 3.37535 412.389
874 1 -45.6252 3.37341 414.254 -45.6252 3.37341 414.254
10 1 -57.7472 1.89163 402.815 -57.7472 1.89163 402.815
274 1 -59.5201 1.9183 404.652 -59.5201 1.9183 404.652
271 1 -61.2635 1.91086 406.515 -61.2635 1.91086 406.515
558 1 -63.0041 1.903 408.386 -63.0041 1.903 408.386
24 1 -47.984 1.90585 401.524 -47.984 1.90585 401.524
21 1 -49.7221 1.91126 403.364 -49.7221 1.91126 403.364
288 1 -51.4608 1.90524 405.234 -51.4608 1.90524 405.234
285 1 -53.2092 1.90262 407.098 -53.2092 1.90262 407.098
571 1 -54.9607 1.9038 408.957 -54.9607 1.9038 408.957
568 1 -56.7086 1.90295 410.819 -56.7086 1.90295 410.819
852 1 -58.4533 1.89936 412.685 -58.4533 1.89936 412.685
848 1 -60.1975 1.89551 414.552 -60.1975 1.89551 414.552
306 1 -41.6761 1.90949 403.93 -41.6761 1.90949 403.93
302 1 -43.4196 1.90744 405.794 -43.4196 1.90744 405.794
299 1 -45.1659 1.90603 407.661 -45.1659 1.90603 407.661
583 1 -46.9127 1.90346 409.527 -46.9127 1.90346 409.527
581 1 -48.6602 1.90104 411.391 -48.6602 1.90104 411.391
866 1 -50.408 1.89941 413.254 -50.408 1.89941 413.254
880 1 -42.3608 1.89765 413.82 -42.3608 1.89765 413.82
312 1 -37.7671 1.16965 405.856 -37.7671 1.16965 405.856
2 1 -62.5743 0.454866 401.776 -62.5743 0.454866 401.776
13 1 -55.3558 2.64131 403.292 -55.3558 2.64131 403.292
278 1 -57.1156 2.64505 405.16 -57.1156 2.64505 405.16
275 1 -58.8724 2.64954 407.017 -58.8724 2.64954 407.017
562 1 -60.6161 2.6434 408.884 -60.6161 2.6434 408.884
559 1 -62.3593 2.63791 410.753 -62.3593 2.63791 410.753
1166 1 -42.8192 3.3658 420.412 -42.8192 3.3658 420.412
889 1 -36.7065 1.15928 413.884 -36.7065 1.15928 413.884
28 1 -45.5787 2.65333 402.037 -45.5787 2.65333 402.037
296 1 -47.3298 2.64977 403.868 -47.3298 2.64977 403.868
292 1 -49.074 2.64715 405.731 -49.074 2.64715 405.731
289 1 -50.8194 2.64195 407.597 -50.8194 2.64195 407.597
574 1 -52.5685 2.64035 409.459 -52.5685 2.64035 409.459
572 1 -54.3174 2.63975 411.321 -54.3174 2.63975 411.321
856 1 -56.0634 2.63735 413.185 -56.0634 2.63735 413.185
303 1 -42.7756 2.64257 408.16 -42.7756 2.64257 408.16
587 1 -44.5221 2.64049 410.025 -44.5221 2.64049 410.025
584 1 -46.269 2.6383 411.89 -46.269 2.6383 411.89
870 1 -48.0165 2.63645 413.754 -48.0165 2.63645 413.754
6 1 -60.1532 1.18441 402.296 -60.1532 1.18441 402.296
270 1 -61.912 1.18085 404.137 -61.912 1.18085 404.137
267 1 -63.6476 1.16783 406.016 -63.6476 1.16783 406.016
890 1 -36.0623 1.89419 416.248 -36.0623 1.89419 416.248
18 1 -52.0968 1.16165 402.877 -52.0968 1.16165 402.877
284 1 -53.8464 1.16523 404.738 -53.8464 1.16523 404.738
281 1 -55.6012 1.16657 406.595 -55.6012 1.16657 406.595
567 1 -57.3535 1.1692 408.454 -57.3535 1.1692 408.454
564 1 -59.0988 1.16554 410.319 -59.0988 1.16554 410.319
561 1 -60.8425 1.16091 412.186 -60.8425 1.16091 412.186
844 1 -62.5868 1.15711 414.054 -62.5868 1.15711 414.054
33 1 -42.3345 1.16835 401.579 -42.3345 1.16835 401.579
30 1 -44.0669 1.16748 403.426 -44.0669 1.16748 403.426
298 1 -45.8101 1.1719 405.296 -45.8101 1.1719 405.296
295 1 -47.5565 1.16929 407.164 -47.5565 1.16929 407.164
580 1 -49.3035 1.16541 409.028 -49.3035 1.16541 409.028
577 1 -51.0516 1.16351 410.891 -51.0516 1.16351 410.891
862 1 -52.7996 1.16225 412.754 -52.7996 1.16225 412.754
590 1 -43.0047 1.16275 411.456 -43.0047 1.16275 411.456
876 1 -44.7516 1.16063 413.321 -44.7516 1.16063 413.321
1163 1 -44.3369 0.416116 418.981 -44.3369 0.416116 418.981
1153 1 -50.8649 3.36702 419.847 -50.8649 3.36702 419.847
311 1 -38.6386 3.38318 406.793 -38.6386 3.38318 406.793
42 1 -36.6825 0.429661 401.64 -36.6825 0.429661 401.64
1135 1 -62.1699 0.411919 419.718 -62.1699 0.411919 419.718
1171 1 -39.5551 1.89002 419.979 -39.5551 1.89002 419.979
1139 1 -59.7801 1.15003 420.217 -59.7801 1.15003 420.217
601 1 -36.4777 2.6394 410.587 -36.4777 2.6394 410.587
313 1 -36.891 3.3868 404.925 -36.891 3.3868 404.925
858 1 -54.5457 1.15984 414.618 -54.5457 1.15984 414.618
868 1 -48.8902 0.421886 414.686 -48.8902 0.421886 414.686
1147 1 -54.773 4.10674 417.916 -54.773 4.10674 417.916
843 1 -63.4592 3.3692 414.987 -63.4592 3.3692 414.987
593 1 -40.6141 1.89979 411.955 -40.6141 1.89979 411.955
308 1 -40.1565 0.433133 405.358 -40.1565 0.433133 405.358
861 1 -53.0279 4.10984 416.051 -53.0279 4.10984 416.051
1158 1 -47.6012 1.89184 419.414 -47.6012 1.89184 419.414
884 1 -39.9701 2.63471 414.318 -39.9701 2.63471 414.318
881 1 -41.7167 2.63268 416.184 -41.7167 2.63268 416.184
885 1 -39.326 3.36971 416.682 -39.326 3.36971 416.682
859 1 -53.9005 1.89461 416.983 -53.9005 1.89461 416.983
596 1 -38.8679 1.90209 410.089 -38.8679 1.90209 410.089
879 1 -42.5901 0.417994 417.116 -42.5901 0.417994 417.116
1172 1 -38.6818 4.10474 419.046 -38.6818 4.10474 419.046
1154 1 -49.9921 1.15464 418.915 -49.9921 1.15464 418.915
887 1 -38.4528 1.15703 415.749 -38.4528 1.15703 415.749
597 1 -38.2237 2.63694 412.453 -38.2237 2.63694 412.453
1161 1 -45.8546 1.89389 417.549 -45.8546 1.89389 417.549
1138 1 -60.425 0.414993 417.851 -60.425 0.414993 417.851
1149 1 -53.2553 2.62935 419.348 -53.2553 2.62935 419.348
41 1 -37.5351 2.64595 402.579 -37.5351 2.64595 402.579
888 1 -37.5796 3.37185 414.817 -37.5796 3.37185 414.817
1165 1 -43.4635 2.63079 418.049 -43.4635 2.63079 418.049
1141 1 -58.0353 1.15322 418.35 -58.0353 1.15322 418.35
1145 1 -55.6455 1.89138 418.849 -55.6455 1.89138 418.849
600 1 -37.1224 1.90457 408.222 -37.1224 1.90457 408.222
1148 1 -54.1279 0.414068 420.281 -54.1279 0.414068 420.281
882 1 -41.4874 4.1124 412.887 -41.4874 4.1124 412.887
1157 1 -48.4742 4.10438 420.347 -48.4742 4.10438 420.347
1144 1 -56.5179 4.10349 419.782 -56.5179 4.10349 419.782
602 1 -35.6047 0.427126 409.653 -35.6047 0.427126 409.653
1131 1 -63.915 0.409078 421.585 -63.915 0.409078 421.585
1755 1 -36.1041 2.61728 428.502 -36.1041 2.61728 428.502
1460 1 -40.657 2.62299 424.208 -40.657 2.62299 424.208
2308 1 -50.4855 3.34286 437.767 -50.4855 3.34286 437.767
2316 1 -45.4773 1.87054 435.466 -45.4773 1.87054 435.466
2312 1 -48.0953 4.08035 438.265 -48.0953 4.08035 438.265
1464 1 -38.2663 3.36002 424.707 -38.2663 3.36002 424.707
1461 1 -39.7839 0.410298 423.275 -39.7839 0.410298 423.275
2039 1 -38.9511 3.34767 434.598 -38.9511 3.34767 434.598
2613 1 -40.9246 1.86512 439.761 -40.9246 1.86512 439.761
1467 1 -35.8756 4.09708 425.205 -35.8756 4.09708 425.205
2603 1 -46.5778 2.60276 439.697 -46.5778 2.60276 439.697
1443 1 -50.2198 4.10174 422.212 -50.2198 4.10174 422.212
1748 1 -40.0124 3.35791 426.572 -40.0124 3.35791 426.572
2023 1 -47.8676 1.13311 434.968 -47.8676 1.13311 434.968
2310 1 -48.968 1.86531 439.198 -48.968 1.86531 439.198
1151 1 -51.7376 1.15186 420.78 -51.7376 1.15186 420.78
2303 1 -53.7482 0.39022 438.202 -53.7482 0.39022 438.202
2299 1 -56.1383 4.08002 437.703 -56.1383 4.08002 437.703
2033 1 -42.2143 0.395442 435.032 -42.2143 0.395442 435.032
1433 1 -55.8728 0.410933 422.147 -55.8728 0.410933 422.147
1430 1 -57.6178 0.407877 424.013 -57.6178 0.407877 424.013
1426 1 -59.3629 0.404932 425.88 -59.3629 0.404932 425.88
1713 1 -61.108 0.402094 427.746 -61.108 0.402094 427.746
1710 1 -62.8531 0.399344 429.612 -62.8531 0.399344 429.612
2330 1 -36.7887 2.60493 438.393 -36.7887 2.60493 438.393
1160 1 -46.0833 0.414061 420.846 -46.0833 0.414061 420.846
1447 1 -47.8293 0.411677 422.711 -47.8293 0.411677 422.711
1444 1 -49.5748 0.409012 424.577 -49.5748 0.409012 424.577
1730 1 -51.32 0.406199 426.443 -51.32 0.406199 426.443
1727 1 -53.0652 0.403344 428.309 -53.0652 0.403344 428.309
1724 1 -54.8104 0.4005 430.175 -54.8104 0.4005 430.175
2008 1 -56.5555 0.39769 432.041 -56.5555 0.39769 432.041
2006 1 -58.3007 0.394918 433.907 -58.3007 0.394918 433.907
1458 1 -41.5301 0.408201 425.14 -41.5301 0.408201 425.14
1743 1 -43.276 0.405937 427.006 -43.276 0.405937 427.006
1740 1 -45.0216 0.403499 428.872 -45.0216 0.403499 428.872
2026 1 -46.7671 0.400929 430.737 -46.7671 0.400929 430.737
2022 1 -48.5125 0.398283 432.603 -48.5125 0.398283 432.603
2019 1 -50.2578 0.3956 434.469 -50.2578 0.3956 434.469
2309 1 -49.6129 1.13046 436.834 -49.6129 1.13046 436.834
1137 1 -60.6526 3.36223 421.15 -60.6526 3.36223 421.15
1421 1 -62.3976 3.35933 423.016 -62.3976 3.35933 423.016
1439 1 -52.6102 3.3641 421.713 -52.6102 3.3641 421.713
1435 1 -54.3553 3.36107 423.579 -54.3553 3.36107 423.579
1432 1 -56.1003 3.35807 425.445 -56.1003 3.35807 425.445
1719 1 -57.8454 3.35514 427.311 -57.8454 3.35514 427.311
1716 1 -59.5905 3.35229 429.178 -59.5905 3.35229 429.178
2001 1 -61.3356 3.34952 431.044 -61.3356 3.34952 431.044
1998 1 -63.0808 3.3468 432.91 -63.0808 3.3468 432.91
2323 1 -40.6967 3.34524 436.463 -40.6967 3.34524 436.463
1453 1 -44.5655 3.36374 422.277 -44.5655 3.36374 422.277
1450 1 -46.3115 3.36141 424.143 -46.3115 3.36141 424.143
1446 1 -48.057 3.35884 426.008 -48.057 3.35884 426.008
1732 1 -49.8024 3.35612 427.874 -49.8024 3.35612 427.874
1729 1 -51.5477 3.35334 429.74 -51.5477 3.35334 429.74
2014 1 -53.2929 3.35055 431.606 -53.2929 3.35055 431.606
2011 1 -55.038 3.34778 433.472 -55.038 3.34778 433.472
1745 1 -41.7583 3.35566 428.437 -41.7583 3.35566 428.437
1742 1 -43.504 3.35326 430.303 -43.504 3.35326 430.303
2028 1 -45.2495 3.35075 432.169 -45.2495 3.35075 432.169
2025 1 -46.9949 3.34815 434.035 -46.9949 3.34815 434.035
1427 1 -59.1352 1.88508 422.582 -59.1352 1.88508 422.582
1424 1 -60.8803 1.88214 424.448 -60.8803 1.88214 424.448
1711 1 -62.6254 1.87933 426.315 -62.6254 1.87933 426.315
2322 1 -41.5694 1.13028 437.396 -41.5694 1.13028 437.396
1750 1 -38.4947 1.88018 428.003 -38.4947 1.88018 428.003
1155 1 -49.3471 1.88937 421.279 -49.3471 1.88937 421.279
1441 1 -51.0925 1.88659 423.145 -51.0925 1.88659 423.145
1438 1 -52.8377 1.88367 425.011 -52.8377 1.88367 425.011
1725 1 -54.5828 1.88074 426.877 -54.5828 1.88074 426.877
1722 1 -56.3279 1.87785 428.743 -56.3279 1.87785 428.743
1718 1 -58.073 1.87501 430.609 -58.073 1.87501 430.609
2003 1 -59.8182 1.87223 432.476 -59.8182 1.87223 432.476
2000 1 -61.5633 1.86949 434.342 -61.5633 1.86949 434.342
1459 1 -41.3015 1.88804 421.844 -41.3015 1.88804 421.844
1455 1 -43.0478 1.88596 423.709 -43.0478 1.88596 423.709
1452 1 -44.7937 1.88367 425.574 -44.7937 1.88367 425.574
1737 1 -46.5393 1.88118 427.44 -46.5393 1.88118 427.44
1735 1 -48.2848 1.87854 429.306 -48.2848 1.87854 429.306
2020 1 -50.0301 1.87583 431.172 -50.0301 1.87583 431.172
2017 1 -51.7753 1.8731 433.038 -51.7753 1.8731 433.038
2034 1 -41.9863 1.87557 431.735 -41.9863 1.87557 431.735
2031 1 -43.7319 1.8731 433.6 -43.7319 1.8731 433.6
2029 1 -44.6046 4.08555 434.533 -44.6046 4.08555 434.533
1146 1 -55.0004 2.62622 421.214 -55.0004 2.62622 421.214
1431 1 -56.7453 2.62312 423.08 -56.7453 2.62312 423.08
1428 1 -58.4903 2.62012 424.947 -58.4903 2.62012 424.947
1715 1 -60.2354 2.61723 426.813 -60.2354 2.61723 426.813
1712 1 -61.9805 2.61444 428.679 -61.9805 2.61444 428.679
1708 1 -63.7257 2.61172 430.546 -63.7257 2.61172 430.546
1747 1 -40.2406 1.87794 429.869 -40.2406 1.87794 429.869
1449 1 -46.9564 2.62664 421.778 -46.9564 2.62664 421.778
1445 1 -48.702 2.6241 423.644 -48.702 2.6241 423.644
1442 1 -50.4474 2.62134 425.51 -50.4474 2.62134 425.51
1728 1 -52.1926 2.6185 427.376 -52.1926 2.6185 427.376
1726 1 -53.9378 2.61564 429.242 -53.9378 2.61564 429.242
2010 1 -55.683 2.61282 431.108 -55.683 2.61282 431.108
2007 1 -57.4281 2.61003 432.974 -57.4281 2.61003 432.974
1456 1 -42.403 2.62082 426.073 -42.403 2.62082 426.073
1741 1 -44.1488 2.61846 427.939 -44.1488 2.61846 427.939
1738 1 -45.8944 2.61595 429.804 -45.8944 2.61595 429.804
2024 1 -47.6398 2.61334 431.67 -47.6398 2.61334 431.67
2021 1 -49.3851 2.61067 433.536 -49.3851 2.61067 433.536
2035 1 -41.3415 2.6104 434.099 -41.3415 2.6104 434.099
1754 1 -36.7487 1.88231 426.138 -36.7487 1.88231 426.138
1423 1 -61.5251 1.14703 422.083 -61.5251 1.14703 422.083
1420 1 -63.2702 1.14421 423.95 -63.2702 1.14421 423.95
2044 1 -35.6877 1.87235 434.163 -35.6877 1.87235 434.163
1437 1 -53.4828 1.14886 422.646 -53.4828 1.14886 422.646
1434 1 -55.2278 1.14584 424.512 -55.2278 1.14584 424.512
1721 1 -56.9729 1.14287 426.378 -56.9729 1.14287 426.378
1717 1 -58.7179 1.13998 428.245 -58.7179 1.13998 428.245
1714 1 -60.4631 1.13717 430.111 -60.4631 1.13717 430.111
1999 1 -62.2082 1.13443 431.977 -62.2082 1.13443 431.977
1997 1 -63.9534 1.13173 433.843 -63.9534 1.13173 433.843
1164 1 -43.6924 1.15107 421.345 -43.6924 1.15107 421.345
1451 1 -45.4385 1.14888 423.21 -45.4385 1.14888 423.21
1448 1 -47.1843 1.14642 425.075 -47.1843 1.14642 425.075
1734 1 -48.9297 1.14376 426.941 -48.9297 1.14376 426.941
1731 1 -50.675 1.14101 428.807 -50.675 1.14101 428.807
2016 1 -52.4203 1.13822 430.673 -52.4203 1.13822 430.673
2012 1 -54.1655 1.13544 432.539 -54.1655 1.13544 432.539
2009 1 -55.9106 1.13267 434.406 -55.9106 1.13267 434.406
1746 1 -40.8854 1.14308 427.505 -40.8854 1.14308 427.505
1744 1 -42.6311 1.14075 429.37 -42.6311 1.14075 429.37
2030 1 -44.3767 1.13829 431.236 -44.3767 1.13829 431.236
2027 1 -46.1222 1.13573 433.102 -46.1222 1.13573 433.102
2325 1 -39.8239 1.13274 435.53 -39.8239 1.13274 435.53
1749 1 -39.3677 4.0928 428.936 -39.3677 4.0928 428.936
1425 1 -60.0077 4.09732 423.515 -60.0077 4.09732 423.515
1736 1 -47.4121 4.0936 428.373 -47.4121 4.0936 428.373
1142 1 -57.3903 1.88816 420.715 -57.3903 1.88816 420.715
1720 1 -57.2005 4.09015 429.676 -57.2005 4.09015 429.676
2005 1 -58.9456 4.08734 431.542 -58.9456 4.08734 431.542
2002 1 -60.6907 4.08458 433.409 -60.6907 4.08458 433.409
1169 1 -40.4283 4.10276 420.911 -40.4283 4.10276 420.911
1723 1 -55.4554 4.09301 427.81 -55.4554 4.09301 427.81
1440 1 -51.9651 4.09887 424.078 -51.9651 4.09887 424.078
1733 1 -49.1574 4.09092 430.239 -49.1574 4.09092 430.239
2018 1 -50.9027 4.08819 432.105 -50.9027 4.08819 432.105
2015 1 -52.6479 4.08546 433.971 -52.6479 4.08546 433.971
2036 1 -41.1135 4.0905 430.802 -41.1135 4.0905 430.802
2032 1 -42.8591 4.08807 432.667 -42.8591 4.08807 432.667
2326 1 -39.1791 1.86761 437.895 -39.1791 1.86761 437.895
1752 1 -37.6217 4.09498 427.071 -37.6217 4.09498 427.071
1457 1 -42.1747 4.10075 422.776 -42.1747 4.10075 422.776
2043 1 -36.3324 1.13741 431.799 -36.3324 1.13741 431.799
2286 1 -63.3084 1.86678 436.208 -63.3084 1.86678 436.208
2319 1 -43.3149 1.12774 439.262 -43.3149 1.12774 439.262
1436 1 -53.7102 4.09593 425.944 -53.7102 4.09593 425.944
1422 1 -61.7528 4.09445 425.381 -61.7528 4.09445 425.381
1173 1 -38.0375 0.412311 421.41 -38.0375 0.412311 421.41
2293 1 -59.4009 1.12722 438.138 -59.4009 1.12722 438.138
2289 1 -61.791 0.389458 437.64 -61.791 0.389458 437.64
2295 1 -57.8835 4.07732 439.57 -57.8835 4.07732 439.57
1465 1 -37.3931 1.14732 423.774 -37.3931 1.14732 423.774
2315 1 -45.7051 0.390341 438.764 -45.7051 0.390341 438.764
2331 1 -36.5606 4.08492 435.096 -36.5606 4.08492 435.096
2297 1 -57.0109 1.86494 438.636 -57.0109 1.86494 438.636
2324 1 -40.0518 4.0801 438.828 -40.0518 4.0801 438.828
2306 1 -51.3581 1.1278 438.7 -51.3581 1.1278 438.7
2285 1 -63.5361 0.386743 439.506 -63.5361 0.386743 439.506
1462 1 -39.1393 1.14525 425.639 -39.1393 1.14525 425.639
1751 1 -37.85 2.61509 430.368 -37.85 2.61509 430.368
2329 1 -37.4334 1.87002 436.029 -37.4334 1.87002 436.029
2042 1 -37.2053 3.35 432.732 -37.2053 3.35 432.732
2041 1 -38.0782 1.13512 433.665 -38.0782 1.13512 433.665
2593 1 -52.2308 3.3402 439.633 -52.2308 3.3402 439.633
2328 1 -37.6615 0.389989 439.326 -37.6615 0.389989 439.326
2301 1 -54.6208 2.60261 439.135 -54.6208 2.60261 439.135
1466 1 -36.52 3.36207 422.841 -36.52 3.36207 422.841
2298 1 -56.7832 3.34503 435.339 -56.7832 3.34503 435.339
2321 1 -42.4422 3.34274 438.329 -42.4422 3.34274 438.329
2313 1 -47.2227 1.86794 437.332 -47.2227 1.86794 437.332
2294 1 -58.5284 3.3423 437.205 -58.5284 3.3423 437.205
2304 1 -52.8756 2.60529 437.269 -52.8756 2.60529 437.269
2300 1 -55.2657 1.86765 436.77 -55.2657 1.86765 436.77
2290 1 -60.9184 2.60454 436.706 -60.9184 2.60454 436.706
2318 1 -43.9597 0.392919 436.898 -43.9597 0.392919 436.898
2327 1 -38.3063 4.08255 436.962 -38.3063 4.08255 436.962
2004 1 -59.1733 2.60727 434.84 -59.1733 2.60727 434.84
2013 1 -53.5205 1.87037 434.904 -53.5205 1.87037 434.904
2288 1 -62.4359 4.08186 435.275 -62.4359 4.08186 435.275
2037 1 -40.4687 0.397888 433.166 -40.4687 0.397888 433.166
1739 1 -45.6666 4.09617 426.507 -45.6666 4.09617 426.507
1753 1 -36.9771 0.402473 429.435 -36.9771 0.402473 429.435
2307 1 -51.1304 2.60798 435.402 -51.1304 2.60798 435.402
2314 1 -46.35 4.08297 436.399 -46.35 4.08297 436.399
2040 1 -38.723 0.400234 431.3 -38.723 0.400234 431.3
2320 1 -43.087 2.60792 435.965 -43.087 2.60792 435.965
2292 1 -60.0458 0.392177 435.773 -60.0458 0.392177 435.773
2311 1 -48.7402 3.34551 435.901 -48.7402 3.34551 435.901
2302 1 -54.3931 4.08273 435.837 -54.3931 4.08273 435.837
2296 1 -57.6558 1.12994 436.272 -57.6558 1.12994 436.272
1463 1 -38.9107 2.62503 422.343 -38.9107 2.62503 422.343
2287 1 -62.6635 2.60183 438.573 -62.6635 2.60183 438.573
2291 1 -60.2735 3.33959 439.071 -60.2735 3.33959 439.071
2317 1 -44.8324 2.60536 437.831 -44.8324 2.60536 437.831
2038 1 -39.5958 2.6128 432.233 -39.5958 2.6128 432.233
2305 1 -52.003 0.392908 436.336 -52.003 0.392908 436.336
2332 1 -35.9158 0.392392 437.461 -35.9158 0.392392 437.461
1709 1 -63.498 4.0917 427.248 -63.498 4.0917 427.248
1468 1 -35.6469 1.14937 421.909 -35.6469 1.14937 421.909
1454 1 -43.9208 4.09857 424.642 -43.9208 4.09857 424.642
1429 1 -58.2628 4.10033 421.649 -58.2628 4.10033 421.649
1133 1 -63.0424 2.6242 420.651 -63.0424 2.6242 420.651
1175 1 -37.1643 2.62705 420.477 -37.1643 2.62705 420.477
2616 1 -38.7622 1.12239 443.557 -38.7622 1.12239 443.557
2901 1 -40.5076 1.11983 445.422 -40.5076 1.11983 445.422
2907 1 -37.2446 4.07229 444.988 -37.2446 4.07229 444.988
3194 1 -38.3451 0.377159 449.218 -38.3451 0.377159 449.218
2587 1 -55.4934 0.387545 440.068 -55.4934 0.387545 440.068
2597 1 -49.8406 4.07772 440.132 -49.8406 4.07772 440.132
2584 1 -57.2386 0.384884 441.934 -57.2386 0.384884 441.934
2581 1 -58.9838 0.382226 443.8 -58.9838 0.382226 443.8
2868 1 -60.7289 0.379549 445.667 -60.7289 0.379549 445.667
2865 1 -62.474 0.376824 447.533 -62.474 0.376824 447.533
2601 1 -47.4505 0.38773 440.63 -47.4505 0.38773 440.63
2598 1 -49.1958 0.385105 442.496 -49.1958 0.385105 442.496
2885 1 -50.941 0.382487 444.362 -50.941 0.382487 444.362
2882 1 -52.6863 0.379894 446.229 -52.6863 0.379894 446.229
2879 1 -54.4316 0.377331 448.095 -54.4316 0.377331 448.095
2612 1 -41.1524 0.384971 443.058 -41.1524 0.384971 443.058
2898 1 -42.8978 0.382376 444.924 -42.8978 0.382376 444.924
2895 1 -44.6431 0.379748 446.79 -44.6431 0.379748 446.79
3180 1 -46.3884 0.377118 448.656 -46.3884 0.377118 448.656
2576 1 -62.0186 3.33688 440.937 -62.0186 3.33688 440.937
2574 1 -63.7637 3.33414 442.804 -63.7637 3.33414 442.804
2589 1 -53.976 3.33755 441.499 -53.976 3.33755 441.499
2586 1 -55.7212 3.33492 443.366 -55.7212 3.33492 443.366
2874 1 -57.4664 3.3323 445.232 -57.4664 3.3323 445.232
2871 1 -59.2116 3.32968 447.098 -59.2116 3.32968 447.098
3155 1 -60.9567 3.32702 448.965 -60.9567 3.32702 448.965
2607 1 -44.1876 3.34018 440.195 -44.1876 3.34018 440.195
2604 1 -45.9329 3.33758 442.061 -45.9329 3.33758 442.061
2600 1 -47.6782 3.33496 443.928 -47.6782 3.33496 443.928
2887 1 -49.4235 3.33234 445.794 -49.4235 3.33234 445.794
2884 1 -51.1688 3.32975 447.66 -51.1688 3.32975 447.66
3168 1 -52.9141 3.32718 449.526 -52.9141 3.32718 449.526
2900 1 -41.3802 3.33225 446.356 -41.3802 3.33225 446.356
2897 1 -43.1255 3.32962 448.222 -43.1255 3.32962 448.222
2582 1 -58.7561 1.86225 440.503 -58.7561 1.86225 440.503
2579 1 -60.5012 1.85956 442.369 -60.5012 1.85956 442.369
2866 1 -62.2463 1.85684 444.235 -62.2463 1.85684 444.235
2578 1 -61.1461 1.12451 440.004 -61.1461 1.12451 440.004
2595 1 -50.7133 1.86267 441.065 -50.7133 1.86267 441.065
2592 1 -52.4585 1.86005 442.931 -52.4585 1.86005 442.931
2880 1 -54.2038 1.85744 444.797 -54.2038 1.85744 444.797
2877 1 -55.949 1.85486 446.663 -55.949 1.85486 446.663
2873 1 -57.6942 1.85229 448.53 -57.6942 1.85229 448.53
2609 1 -42.67 1.86257 441.627 -42.67 1.86257 441.627
2606 1 -44.4154 1.85998 443.493 -44.4154 1.85998 443.493
2892 1 -46.1607 1.85735 445.359 -46.1607 1.85735 445.359
2890 1 -47.906 1.85473 447.225 -47.906 1.85473 447.225
3174 1 -49.6513 1.85212 449.091 -49.6513 1.85212 449.091
2618 1 -37.8894 3.33738 442.624 -37.8894 3.33738 442.624
2585 1 -56.366 2.59994 441.001 -56.366 2.59994 441.001
2583 1 -58.1112 2.59728 442.867 -58.1112 2.59728 442.867
2870 1 -59.8563 2.59462 444.734 -59.8563 2.59462 444.734
2867 1 -61.6014 2.59192 446.6 -61.6014 2.59192 446.6
2863 1 -63.3465 2.58916 448.466 -63.3465 2.58916 448.466
2599 1 -48.3231 2.60014 441.563 -48.3231 2.60014 441.563
2596 1 -50.0684 2.59752 443.429 -50.0684 2.59752 443.429
2883 1 -51.8137 2.59491 445.295 -51.8137 2.59491 445.295
2881 1 -53.559 2.59234 447.162 -53.559 2.59234 447.162
3164 1 -55.3043 2.58978 449.028 -55.3043 2.58978 449.028
2610 1 -42.0251 2.59741 443.991 -42.0251 2.59741 443.991
2896 1 -43.7705 2.59479 445.857 -43.7705 2.59479 445.857
2893 1 -45.5157 2.59216 447.723 -45.5157 2.59216 447.723
3178 1 -47.261 2.58954 449.589 -47.261 2.58954 449.589
2575 1 -62.8912 1.12179 441.87 -62.8912 1.12179 441.87
2591 1 -53.1034 1.12515 440.566 -53.1034 1.12515 440.566
2588 1 -54.8486 1.12251 442.433 -54.8486 1.12251 442.433
2876 1 -56.5938 1.11989 444.299 -56.5938 1.11989 444.299
2872 1 -58.339 1.11727 446.165 -58.339 1.11727 446.165
2869 1 -60.0841 1.11463 448.031 -60.0841 1.11463 448.031
2605 1 -45.0603 1.12516 441.128 -45.0603 1.12516 441.128
2602 1 -46.8056 1.12255 442.994 -46.8056 1.12255 442.994
2889 1 -48.5509 1.11992 444.861 -48.5509 1.11992 444.861
2886 1 -50.2962 1.11731 446.727 -50.2962 1.11731 446.727
3170 1 -52.0415 1.11473 448.593 -52.0415 1.11473 448.593
2899 1 -42.2529 1.11721 447.289 -42.2529 1.11721 447.289
3184 1 -43.9981 1.11457 449.155 -43.9981 1.11457 449.155
2580 1 -59.6286 4.07463 441.436 -59.6286 4.07463 441.436
2577 1 -61.3737 4.07193 443.302 -61.3737 4.07193 443.302
2864 1 -63.1188 4.0692 445.168 -63.1188 4.0692 445.168
2862 1 -63.9913 1.85408 446.101 -63.9913 1.85408 446.101
2594 1 -51.5859 4.07508 441.998 -51.5859 4.07508 441.998
2590 1 -53.3312 4.07247 443.864 -53.3312 4.07247 443.864
2878 1 -55.0764 4.06988 445.73 -55.0764 4.06988 445.73
2875 1 -56.8216 4.0673 447.597 -56.8216 4.0673 447.597
3159 1 -58.5668 4.06473 449.463 -58.5668 4.06473 449.463
2611 1 -41.7973 4.07758 440.694 -41.7973 4.07758 440.694
2608 1 -43.5427 4.075 442.56 -43.5427 4.075 442.56
2894 1 -45.288 4.07239 444.426 -45.288 4.07239 444.426
2891 1 -47.0333 4.06976 446.292 -47.0333 4.06976 446.292
2888 1 -48.7786 4.06715 448.158 -48.7786 4.06715 448.158
2904 1 -38.99 4.06972 446.854 -38.99 4.06972 446.854
2621 1 -36.1439 3.33985 440.758 -36.1439 3.33985 440.758
2617 1 -38.5343 2.60249 440.259 -38.5343 2.60249 440.259
2614 1 -40.2797 2.59998 442.125 -40.2797 2.59998 442.125
2908 1 -36.5998 0.379764 447.352 -36.5998 0.379764 447.352
2619 1 -37.0167 1.1249 441.691 -37.0167 1.1249 441.691
2906 1 -37.4725 2.5922 448.285 -37.4725 2.5922 448.285
2905 1 -38.1173 1.85729 445.921 -38.1173 1.85729 445.921
2620 1 -36.3719 1.85982 444.055 -36.3719 1.85982 444.055
3190 1 -40.7353 4.0671 448.72 -40.7353 4.0671 448.72
2902 1 -39.8627 1.85469 447.787 -39.8627 1.85469 447.787
2903 1 -39.6349 3.33484 444.489 -39.6349 3.33484 444.489
2615 1 -39.407 0.387512 441.192 -39.407 0.387512 441.192
2909 1 -35.7271 2.59477 446.419 -35.7271 2.59477 446.419
14 1 -55.1388 4.15708 400.127 -55.1388 4.15708 400.127
7 1 -59.8614 2.64945 399.215 -59.8614 2.64945 399.215
25 1 -47.0965 4.14666 400.6 -47.0965 4.14666 400.6
38 1 -39.0494 4.10658 401.116 -39.0494 4.10658 401.116
23 1 -48.8448 4.12847 402.461 -48.8448 4.12847 402.461
287 1 -52.3353 4.11524 406.161 -52.3353 4.11524 406.161
878 1 -43.2342 4.11037 414.752 -43.2342 4.11037 414.752
579 1 -49.5341 4.11397 412.323 -49.5341 4.11397 412.323
585 1 -46.0393 4.11855 408.595 -46.0393 4.11855 408.595
290 1 -50.5924 4.11839 404.296 -50.5924 4.11839 404.296
11 1 -56.8798 4.10869 401.893 -56.8798 4.10869 401.893
595 1 -39.7409 4.11465 411.022 -39.7409 4.11465 411.022
1134 1 -62.8146 4.10427 417.353 -62.8146 4.10427 417.353
283 1 -54.0851 4.1164 408.025 -54.0851 4.1164 408.025
582 1 -47.7863 4.11589 410.459 -47.7863 4.11589 410.459
276 1 -58.6378 4.12618 403.743 -58.6378 4.12618 403.743
569 1 -55.8352 4.11747 409.887 -55.8352 4.11747 409.887
847 1 -61.0698 4.10747 415.486 -61.0698 4.10747 415.486
556 1 -63.876 4.1145 409.321 -63.876 4.1145 409.321
272 1 -60.3951 4.13005 405.583 -60.3951 4.13005 405.583
3 1 -61.6854 2.66503 400.893 -61.6854 2.66503 400.893
35 1 -40.7965 4.12774 402.986 -40.7965 4.12774 402.986
598 1 -37.9948 4.11725 409.156 -37.9948 4.11725 409.156
850 1 -59.3253 4.11111 413.619 -59.3253 4.11111 413.619