ITEM: TIMESTEP
0
ITEM: NUMBER OF ATOMS
4630
ITEM: BOX BOUNDS xy xz yz pp pp pp
-6.3759392949689804e+01 1.0677842479788981e+02 0.0000000000000000e+00
0.0000000000000000e+00 4.4274527100805940e+00 0.0000000000000000e+00
3.8000000000000000e+02 5.0000000000000000e+02 0.0000000000000000e+00
ITEM: ATOMS id type x y z xu yu zu
27 1 -45.9228 2.03793 399.648 -45.9228 2.03793 399.648
36 1 -40.2924 1.29695 399.707 -40.2924 1.29695 399.707
31 1 -43.5266 2.73459 400.087 -43.5266 2.73459 400.087
22 1 -49.1353 3.48703 400.053 -49.1353 3.48703 400.053
20 1 -50.0207 1.26466 400.896 -50.0207 1.26466 400.896
40 1 -37.8982 1.99483 400.148 -37.8982 1.99483 400.148
34 1 -41.1549 3.49521 400.538 -41.1549 3.49521 400.538
17 1 -52.3964 0.514644 400.451 -52.3964 0.514644 400.451
9 1 -57.9939 1.2069 400.361 -57.9939 1.2069 400.361
43 1 -35.5273 2.75623 400.6 -35.5273 2.75623 400.6
12 1 -55.6484 2.01502 400.841 -55.6484 2.01502 400.841
5 1 -60.3821 0.527641 399.898 -60.3821 0.527641 399.898
29 1 -44.3918 0.505874 400.939 -44.3918 0.505874 400.939
853 1 -57.432 2.68621 414.984 -57.432 2.68621 414.984
873 1 -46.1769 1.21084 415.114 -46.1769 1.21084 415.114
865 1 -50.2947 0.468376 416.485 -50.2947 0.468376 416.485
1174 1 -37.527 1.93671 418.049 -37.527 1.93671 418.049
883 1 -40.5483 0.471798 415.178 -40.5483 0.471798 415.178
863 1 -51.8059 1.94959 415.049 -51.8059 1.94959 415.049
315 1 -35.7538 1.251 403.884 -35.7538 1.251 403.884
307 1 -40.7367 2.7192 406.194 -40.7367 2.7192 406.194
1150 1 -52.0314 0.460957 418.356 -52.0314 0.460957 418.356
855 1 -55.9213 1.20531 416.42 -55.9213 1.20531 416.42
310 1 -38.9992 2.72775 404.328 -38.9992 2.72775 404.328
871 1 -47.0459 3.4213 416.05 -47.0459 3.4213 416.05
16 1 -53.2612 2.71298 401.304 -53.2612 2.71298 401.304
309 1 -39.2252 1.23797 407.628 -39.2252 1.23797 407.628
1156 1 -48.7835 3.41451 417.921 -48.7835 3.41451 417.921
867 1 -49.426 2.68557 415.549 -49.426 2.68557 415.549
1159 1 -46.4038 4.15032 418.421 -46.4038 4.15032 418.421
1168 1 -40.7754 3.41133 418.485 -40.7754 3.41133 418.485
1170 1 -39.9065 1.20091 417.549 -39.9065 1.20091 417.549
594 1 -40.094 3.44817 408.565 -40.094 3.44817 408.565
37 1 -39.6407 1.99884 401.981 -39.6407 1.99884 401.981
851 1 -58.2999 0.46841 415.92 -58.2999 0.46841 415.92
857 1 -55.0534 3.42305 415.484 -55.0534 3.42305 415.484
592 1 -40.9626 1.23101 409.5 -40.9626 1.23101 409.5
849 1 -59.1677 2.67812 416.857 -59.1677 2.67812 416.857
877 1 -43.7969 1.94649 415.614 -43.7969 1.94649 415.614
1143 1 -56.7892 3.41503 417.357 -56.7892 3.41503 417.357
1140 1 -58.5251 3.40707 419.229 -58.5251 3.40707 419.229
845 1 -61.5462 1.94124 416.358 -61.5462 1.94124 416.358
875 1 -44.666 4.15695 416.55 -44.666 4.15695 416.55
886 1 -38.8105 0.478562 413.307 -38.8105 0.478562 413.307
891 1 -35.5625 3.43162 412.87 -35.5625 3.43162 412.87
39 1 -38.135 0.510695 403.378 -38.135 0.510695 403.378
1177 1 -36.0164 0.455465 419.484 -36.0164 0.455465 419.484
1167 1 -41.6443 1.19429 419.421 -41.6443 1.19429 419.421
8 1 -58.8708 3.4615 401.316 -58.8708 3.4615 401.316
869 1 -47.9148 1.20425 416.985 -47.9148 1.20425 416.985
1136 1 -60.9036 2.67024 418.73 -60.9036 2.67024 418.73
1162 1 -44.8928 2.66895 419.856 -44.8928 2.66895 419.856
15 1 -54.1335 0.516157 402.288 -54.1335 0.516157 402.288
280 1 -55.875 0.506372 404.135 -55.875 0.506372 404.135
277 1 -57.6246 0.511013 405.996 -57.6246 0.511013 405.996
273 1 -59.3626 0.503076 407.863 -59.3626 0.503076 407.863
560 1 -61.0961 0.492359 409.737 -61.0961 0.492359 409.737
557 1 -62.8311 0.483396 411.612 -62.8311 0.483396 411.612
26 1 -46.1317 0.520686 402.818 -46.1317 0.520686 402.818
294 1 -47.8734 0.515164 404.698 -47.8734 0.515164 404.698
291 1 -49.6118 0.503402 406.567 -49.6118 0.503402 406.567
576 1 -51.3501 0.495499 408.437 -51.3501 0.495499 408.437
573 1 -53.0901 0.490444 410.305 -53.0901 0.490444 410.305
570 1 -54.8282 0.484313 412.175 -54.8282 0.484313 412.175
854 1 -56.5642 0.476551 414.047 -56.5642 0.476551 414.047
305 1 -41.6041 0.502344 407.13 -41.6041 0.502344 407.13
589 1 -43.3422 0.495351 409.002 -43.3422 0.495351 409.002
586 1 -45.0802 0.488339 410.873 -45.0802 0.488339 410.873
872 1 -46.8186 0.481629 412.744 -46.8186 0.481629 412.744
599 1 -37.0729 0.4855 411.435 -37.0729 0.4855 411.435
1132 1 -63.2822 1.93351 418.231 -63.2822 1.93351 418.231
4 1 -60.6576 3.4872 403.107 -60.6576 3.4872 403.107
268 1 -62.3828 3.46323 404.982 -62.3828 3.46323 404.982
1152 1 -51.1632 2.67845 417.421 -51.1632 2.67845 417.421
19 1 -50.9001 3.4568 401.821 -50.9001 3.4568 401.821
286 1 -52.6282 3.45335 403.682 -52.6282 3.45335 403.682
282 1 -54.3662 3.45328 405.562 -54.3662 3.45328 405.562
279 1 -56.1116 3.45314 407.43 -56.1116 3.45314 407.43
565 1 -57.8505 3.44774 409.3 -57.8505 3.44774 409.3
563 1 -59.5855 3.43878 411.174 -59.5855 3.43878 411.174
846 1 -61.3208 3.4301 413.048 -61.3208 3.4301 413.048
32 1 -42.8854 3.46813 402.405 -42.8854 3.46813 402.405
300 1 -44.6257 3.46633 404.268 -44.6257 3.46633 404.268
297 1 -46.3646 3.45879 406.133 -46.3646 3.45879 406.133
293 1 -48.1017 3.45093 408.003 -48.1017 3.45093 408.003
578 1 -49.8399 3.44346 409.873 -49.8399 3.44346 409.873
575 1 -51.5792 3.43733 411.742 -51.5792 3.43733 411.742
860 1 -53.3171 3.43071 413.612 -53.3171 3.43071 413.612
591 1 -41.8317 3.4412 410.436 -41.8317 3.4412 410.436
588 1 -43.5696 3.43441 412.308 -43.5696 3.43441 412.308
874 1 -45.3077 3.4278 414.179 -45.3077 3.4278 414.179
10 1 -57.3788 1.97477 402.708 -57.3788 1.97477 402.708
274 1 -59.1408 1.99657 404.552 -59.1408 1.99657 404.552
271 1 -60.874 1.98464 406.423 -60.874 1.98464 406.423
558 1 -62.606 1.97258 408.301 -62.606 1.97258 408.301
24 1 -47.6612 1.9937 401.412 -47.6612 1.9937 401.412
21 1 -49.3903 1.99299 403.258 -49.3903 1.99299 403.258
288 1 -51.12 1.98239 405.133 -51.12 1.98239 405.133
285 1 -52.859 1.97495 407.003 -52.859 1.97495 407.003
571 1 -54.601 1.9714 408.869 -54.601 1.9714 408.869
568 1 -56.3394 1.96576 410.738 -56.3394 1.96576 410.738
852 1 -58.075 1.95762 412.611 -58.075 1.95762 412.611
848 1 -59.8104 1.94926 414.484 -59.8104 1.94926 414.484
306 1 -41.3804 1.9895 403.822 -41.3804 1.9895 403.822
302 1 -43.1156 1.983 405.693 -43.1156 1.983 405.693
299 1 -44.853 1.97687 407.566 -44.853 1.97687 407.566
583 1 -46.5908 1.96973 409.438 -46.5908 1.96973 409.438
581 1 -48.3294 1.96271 411.309 -48.3294 1.96271 411.309
866 1 -50.0681 1.95634 413.178 -50.0681 1.95634 413.178
880 1 -42.0589 1.9531 413.743 -42.0589 1.9531 413.743
312 1 -37.4888 1.24464 405.754 -37.4888 1.24464 405.754
2 1 -62.1816 0.543719 401.672 -62.1816 0.543719 401.672
13 1 -54.9972 2.72226 403.186 -54.9972 2.72226 403.186
278 1 -56.7481 2.72209 405.061 -56.7481 2.72209 405.061
275 1 -58.4944 2.72171 406.925 -58.4944 2.72171 406.925
562 1 -60.2289 2.71124 408.8 -60.2289 2.71124 408.8
559 1 -61.9633 2.70141 410.675 -61.9633 2.70141 410.675
1166 1 -42.5131 3.40468 420.356 -42.5131 3.40468 420.356
889 1 -36.4312 1.21444 413.806 -36.4312 1.21444 413.806
28 1 -45.2665 2.73767 401.922 -45.2665 2.73767 401.922
296 1 -47.0083 2.7302 403.762 -47.0083 2.7302 403.762
292 1 -48.7437 2.72297 405.631 -48.7437 2.72297 405.631
289 1 -50.4802 2.71324 407.503 -50.4802 2.71324 407.503
574 1 -52.22 2.70688 409.372 -52.22 2.70688 409.372
572 1 -53.9595 2.70144 411.24 -53.9595 2.70144 411.24
856 1 -55.6964 2.69431 413.111 -55.6964 2.69431 413.111
303 1 -42.4737 2.71219 408.065 -42.4737 2.71219 408.065
587 1 -44.2113 2.70547 409.937 -44.2113 2.70547 409.937
584 1 -45.9493 2.69865 411.808 -45.9493 2.69865 411.808
870 1 -47.6878 2.69212 413.679 -47.6878 2.69212 413.679
6 1 -59.7734 1.26887 402.187 -59.7734 1.26887 402.187
270 1 -61.5202 1.26058 404.039 -61.5202 1.26058 404.039
267 1 -63.2473 1.24348 405.924 -63.2473 1.24348 405.924
890 1 -35.7894 1.94347 416.177 -35.7894 1.94347 416.177
18 1 -51.7546 1.2443 402.768 -51.7546 1.2443 402.768
284 1 -53.4945 1.24285 404.635 -53.4945 1.24285 404.635
281 1 -55.2398 1.23998 406.5 -55.2398 1.23998 406.5
567 1 -56.9823 1.23782 408.366 -56.9823 1.23782 408.366
564 1 -58.7182 1.22966 410.237 -58.7182 1.22966 410.237
561 1 -60.4531 1.22063 412.111 -60.4531 1.22063 412.111
844 1 -62.1886 1.21229 413.985 -62.1886 1.21229 413.985
33 1 -42.0365 1.25518 401.467 -42.0365 1.25518 401.467
30 1 -43.7613 1.24916 403.318 -43.7613 1.24916 403.318
298 1 -45.4953 1.24854 405.194 -45.4953 1.24854 405.194
295 1 -47.2327 1.24144 407.068 -47.2327 1.24144 407.068
580 1 -48.9707 1.23309 408.938 -48.9707 1.23309 408.938
577 1 -50.7097 1.22648 410.808 -50.7097 1.22648 410.808
862 1 -52.4484 1.22039 412.677 -52.4484 1.22039 412.677
590 1 -42.7005 1.22412 411.372 -42.7005 1.22412 411.372
876 1 -44.4386 1.21736 413.244 -44.4386 1.21736 413.244
1163 1 -44.024 0.458579 418.921 -44.024 0.458579 418.921
1153 1 -50.5204 3.40721 419.792 -50.5204 3.40721 419.792
311 1 -38.3561 3.45583 406.693 -38.3561 3.45583 406.693
42 1 -36.4095 0.516018 401.528 -36.4095 0.516018 401.528
1135 1 -61.7717 0.452647 419.667 -61.7717 0.452647 419.667
1171 1 -39.2647 1.93004 419.92 -39.2647 1.93004 419.92
1139 1 -59.3931 1.18942 420.166 -59.3931 1.18942 420.166
601 1 -36.2043 2.70269 410.499 -36.2043 2.70269 410.499
313 1 -36.6169 3.46384 404.82 -36.6169 3.46384 404.82
858 1 -54.1854 1.21323 414.548 -54.1854 1.21323 414.548
868 1 -48.557 0.475178 414.614 -48.557 0.475178 414.614
1147 1 -54.4105 4.15184 417.856 -54.4105 4.15184 417.856
843 1 -63.0566 3.42206 414.922 -63.0566 3.42206 414.922
593 1 -40.321 1.95988 411.872 -40.321 1.95988 411.872
308 1 -39.8675 0.509363 405.255 -39.8675 0.509363 405.255
861 1 -52.6743 4.15963 415.984 -52.6743 4.15963 415.984
1158 1 -47.2725 1.93315 419.357 -47.2725 1.93315 419.357
884 1 -39.6794 2.68889 414.243 -39.6794 2.68889 414.243
881 1 -41.4172 2.6822 416.114 -41.4172 2.6822 416.114
885 1 -39.0376 3.41797 416.614 -39.0376 3.41797 416.614
859 1 -53.5425 1.94205 416.92 -53.5425 1.94205 416.92
596 1 -38.5835 1.96675 410 -38.5835 1.96675 410
879 1 -42.2862 0.465175 417.05 -42.2862 0.465175 417.05
1172 1 -38.3959 4.14709 418.985 -38.3959 4.14709 418.985
1154 1 -49.6521 1.1972 418.856 -49.6521 1.1972 418.856
887 1 -38.1688 1.20761 415.678 -38.1688 1.20761 415.678
597 1 -37.9417 2.69571 412.371 -37.9417 2.69571 412.371
1161 1 -45.5349 1.93994 417.485 -45.5349 1.93994 417.485
1138 1 -60.0357 0.460424 417.793 -60.0357 0.460424 417.793
1149 1 -52.8996 2.67082 419.292 -52.8996 2.67082 419.292
41 1 -37.2588 2.72925 402.466 -37.2588 2.72925 402.466
888 1 -37.3 3.42473 414.742 -37.3 3.42473 414.742
1165 1 -43.1551 2.67561 417.985 -43.1551 2.67561 417.985
1141 1 -57.6571 1.1973 418.293 -57.6571 1.1973 418.293
1145 1 -55.2785 1.93415 418.793 -55.2785 1.93415 418.793
600 1 -36.8465 1.97372 408.127 -36.8465 1.97372 408.127
1148 1 -53.7676 0.453187 420.229 -53.7676 0.453187 420.229
882 1 -41.19 4.17018 412.807 -41.19 4.17018 412.807
1157 1 -48.141 4.14333 420.292 -48.141 4.14333 420.292
1144 1 -56.1464 4.14391 419.729 -56.1464 4.14391 419.729
602 1 -35.3355 0.492621 409.563 -35.3355 0.492621 409.563
1131 1 -63.5078 0.445037 421.54 -63.5078 0.445037 421.54
1755 1 -35.828 2.63606 428.47 -35.828 2.63606 428.47
1460 1 -40.3602 2.65238 424.163 -40.3602 2.65238 424.163
2308 1 -50.1366 3.3376 437.768 -50.1366 3.3376 437.768
2316 1 -45.1536 1.87135 435.459 -45.1536 1.87135 435.459
2312 1 -47.7579 4.07394 438.268 -47.7579 4.07394 438.268
1464 1 -37.9808 3.38822 424.663 -37.9808 3.38822 424.663
1461 1 -39.4915 0.442052 423.227 -39.4915 0.442052 423.227
2039 1 -38.6594 3.351 434.586 -38.6594 3.351 434.586
2613 1 -40.6215 1.85528 439.766 -40.6215 1.85528 439.766
1467 1 -35.6014 4.12409 425.163 -35.6014 4.12409 425.163
2603 1 -46.2471 2.5928 439.703 -46.2471 2.5928 439.703
1443 1 -49.8776 4.13595 422.164 -49.8776 4.13595 422.164
1748 1 -39.718 3.38138 426.535 -39.718 3.38138 426.535
2023 1 -47.5324 1.13507 434.96 -47.5324 1.13507 434.96
2310 1 -48.6259 1.85649 439.204 -48.6259 1.85649 439.204
1151 1 -51.3886 1.1897 420.728 -51.3886 1.1897 420.728
2303 1 -53.3834 0.383723 438.206 -53.3834 0.383723 438.206
2299 1 -55.7621 4.0747 437.706 -55.7621 4.0747 437.706
2033 1 -41.9066 0.397507 435.022 -41.9066 0.397507 435.022
1433 1 -55.5037 0.445346 422.101 -55.5037 0.445346 422.101
1430 1 -57.2397 0.437554 423.974 -57.2397 0.437554 423.974
1426 1 -58.9758 0.429836 425.847 -58.9758 0.429836 425.847
1713 1 -60.7118 0.422191 427.719 -60.7118 0.422191 427.719
1710 1 -62.4479 0.414608 429.592 -62.4479 0.414608 429.592
2330 1 -36.5064 2.59879 438.393 -36.5064 2.59879 438.393
1160 1 -45.7614 0.451783 420.792 -45.7614 0.451783 420.792
1447 1 -47.4984 0.444658 422.664 -47.4984 0.444658 422.664
1444 1 -49.2349 0.437256 424.536 -49.2349 0.437256 424.536
1730 1 -50.9712 0.429698 426.408 -50.9712 0.429698 426.408
1727 1 -52.7074 0.42208 428.281 -52.7074 0.42208 428.281
1724 1 -54.4435 0.414451 430.153 -54.4435 0.414451 430.153
2008 1 -56.1796 0.406834 432.026 -56.1796 0.406834 432.026
2006 1 -57.9156 0.399237 433.899 -57.9156 0.399237 433.899
1458 1 -41.2287 0.43522 425.099 -41.2287 0.43522 425.099
1743 1 -42.9657 0.428203 426.971 -42.9657 0.428203 426.971
1740 1 -44.7024 0.420999 428.843 -44.7024 0.420999 428.843
2026 1 -46.4388 0.413654 430.715 -46.4388 0.413654 430.715
2022 1 -48.1751 0.40622 432.588 -48.1751 0.40622 432.588
2019 1 -49.9113 0.398737 434.46 -49.9113 0.398737 434.46
2309 1 -49.2686 1.12761 436.832 -49.2686 1.12761 436.832
1137 1 -60.2611 3.39927 421.102 -60.2611 3.39927 421.102
1421 1 -61.9971 3.39159 422.975 -61.9971 3.39159 422.975
1439 1 -52.2567 3.39958 421.664 -52.2567 3.39958 421.664
1435 1 -53.9929 3.39183 423.537 -53.9929 3.39183 423.537
1432 1 -55.729 3.38408 425.41 -55.729 3.38408 425.41
1719 1 -57.465 3.37638 427.282 -57.465 3.37638 427.282
1716 1 -59.2011 3.36873 429.155 -59.2011 3.36873 429.155
2001 1 -60.9372 3.36112 431.028 -60.9372 3.36112 431.028
1998 1 -62.6732 3.35356 432.9 -62.6732 3.35356 432.9
2323 1 -40.3959 3.34377 436.458 -40.3959 3.34377 436.458
1453 1 -44.2505 3.39788 422.228 -44.2505 3.39788 422.228
1450 1 -45.9874 3.3908 424.1 -45.9874 3.3908 424.1
1446 1 -47.724 3.38349 425.972 -47.724 3.38349 425.972
1732 1 -49.4604 3.37601 427.844 -49.4604 3.37601 427.844
1729 1 -51.1966 3.36846 429.716 -51.1966 3.36846 429.716
2014 1 -52.9328 3.36088 431.589 -52.9328 3.36088 431.589
2011 1 -54.6688 3.3533 433.462 -54.6688 3.3533 433.462
1745 1 -41.4549 3.37438 428.407 -41.4549 3.37438 428.407
1742 1 -43.1916 3.36721 430.279 -43.1916 3.36721 430.279
2028 1 -44.928 3.35991 432.151 -44.928 3.35991 432.151
2025 1 -46.6643 3.35252 434.023 -46.6643 3.35252 434.023
1427 1 -58.7504 1.91843 422.538 -58.7504 1.91843 422.538
1424 1 -60.4865 1.91072 424.411 -60.4865 1.91072 424.411
1711 1 -62.2226 1.9031 426.284 -62.2226 1.9031 426.284
2322 1 -41.2641 1.12639 437.394 -41.2641 1.12639 437.394
1750 1 -38.2072 1.90011 427.97 -38.2072 1.90011 427.97
1155 1 -49.0094 1.92596 421.228 -49.0094 1.92596 421.228
1441 1 -50.7458 1.91845 423.1 -50.7458 1.91845 423.1
1438 1 -52.4821 1.91079 424.973 -52.4821 1.91079 424.973
1725 1 -54.2182 1.90311 426.845 -54.2182 1.90311 426.845
1722 1 -55.9543 1.89544 428.718 -55.9543 1.89544 428.718
1718 1 -57.6904 1.88779 430.59 -57.6904 1.88779 430.59
2003 1 -59.4264 1.88018 432.463 -59.4264 1.88018 432.463
2000 1 -61.1624 1.87261 434.336 -61.1624 1.87261 434.336
1459 1 -41.0023 1.92336 421.792 -41.0023 1.92336 421.792
1455 1 -42.7396 1.91654 423.663 -42.7396 1.91654 423.663
1452 1 -44.4765 1.9095 425.535 -44.4765 1.9095 425.535
1737 1 -46.2132 1.90224 427.407 -46.2132 1.90224 427.407
1735 1 -47.9496 1.89484 429.28 -47.9496 1.89484 429.28
2020 1 -49.6859 1.88735 431.152 -49.6859 1.88735 431.152
2017 1 -51.422 1.87983 433.025 -51.422 1.87983 433.025
2034 1 -41.6808 1.88597 431.714 -41.6808 1.88597 431.714
2031 1 -43.4173 1.87871 433.586 -43.4173 1.87871 433.586
2029 1 -44.2855 4.08876 434.523 -44.2855 4.08876 434.523
1146 1 -54.6357 2.66299 421.165 -54.6357 2.66299 421.165
1431 1 -56.3717 2.65517 423.037 -56.3717 2.65517 423.037
1428 1 -58.1077 2.64741 424.91 -58.1077 2.64741 424.91
1715 1 -59.8438 2.63973 426.783 -59.8438 2.63973 426.783
1712 1 -61.5799 2.63212 428.656 -61.5799 2.63212 428.656
1708 1 -63.316 2.62456 430.529 -63.316 2.62456 430.529
1747 1 -39.9441 1.89312 429.842 -39.9441 1.89312 429.842
1449 1 -46.63 2.66199 421.728 -46.63 2.66199 421.728
1445 1 -48.3667 2.65471 423.6 -48.3667 2.65471 423.6
1442 1 -50.1031 2.64722 425.472 -50.1031 2.64722 425.472
1728 1 -51.8393 2.63962 427.345 -51.8393 2.63962 427.345
1726 1 -53.5755 2.63199 429.217 -53.5755 2.63199 429.217
2010 1 -55.3116 2.62437 431.09 -55.3116 2.62437 431.09
2007 1 -57.0476 2.61676 432.962 -57.0476 2.61676 432.962
1456 1 -42.0973 2.64546 426.035 -42.0973 2.64546 426.035
1741 1 -43.8341 2.63835 427.907 -43.8341 2.63835 427.907
1738 1 -45.5706 2.63107 429.779 -45.5706 2.63107 429.779
2024 1 -47.307 2.62367 431.651 -47.307 2.62367 431.651
2021 1 -49.0432 2.61621 433.524 -49.0432 2.61621 433.524
2035 1 -41.0384 2.61487 434.086 -41.0384 2.61487 434.086
1754 1 -36.4701 1.90697 426.099 -36.4701 1.90697 426.099
1423 1 -61.1291 1.18169 422.039 -61.1291 1.18169 422.039
1420 1 -62.8652 1.17407 423.912 -62.8652 1.17407 423.912
2044 1 -35.4121 1.87694 434.149 -35.4121 1.87694 434.149
1437 1 -53.1248 1.18199 422.601 -53.1248 1.18199 422.601
1434 1 -54.8609 1.17423 424.473 -54.8609 1.17423 424.473
1721 1 -56.597 1.1665 426.346 -56.597 1.1665 426.346
1717 1 -58.3331 1.15882 428.219 -58.3331 1.15882 428.219
1714 1 -60.0691 1.15119 430.091 -60.0691 1.15119 430.091
1999 1 -61.8052 1.14361 431.964 -61.8052 1.14361 431.964
1997 1 -63.5412 1.13606 433.837 -63.5412 1.13606 433.837
1164 1 -43.3818 1.18758 421.292 -43.3818 1.18758 421.292
1451 1 -45.119 1.18065 423.164 -45.119 1.18065 423.164
1448 1 -46.8558 1.17344 425.036 -46.8558 1.17344 425.036
1734 1 -48.5922 1.16604 426.908 -48.5922 1.16604 426.908
1731 1 -50.3285 1.15852 428.78 -50.3285 1.15852 428.78
2016 1 -52.0647 1.15095 430.653 -52.0647 1.15095 430.653
2012 1 -53.8008 1.14336 432.525 -53.8008 1.14336 432.525
2009 1 -55.5369 1.13578 434.398 -55.5369 1.13578 434.398
1746 1 -40.5865 1.16417 427.471 -40.5865 1.16417 427.471
1744 1 -42.3233 1.15708 429.343 -42.3233 1.15708 429.343
2030 1 -44.0598 1.14985 431.215 -44.0598 1.14985 431.215
2027 1 -45.7962 1.1425 433.087 -45.7962 1.1425 433.087
2325 1 -39.5277 1.13367 435.522 -39.5277 1.13367 435.522
1749 1 -39.0757 4.11036 428.906 -39.0757 4.11036 428.906
1425 1 -59.6184 4.12829 423.474 -59.6184 4.12829 423.474
1736 1 -47.0814 4.11228 428.343 -47.0814 4.11228 428.343
1142 1 -57.0144 1.92624 420.665 -57.0144 1.92624 420.665
1720 1 -56.8223 4.10534 429.654 -56.8223 4.10534 429.654
2005 1 -58.5584 4.09771 431.527 -58.5584 4.09771 431.527
2002 1 -60.2944 4.09012 433.4 -60.2944 4.09012 433.4
1169 1 -40.1335 4.14043 420.856 -40.1335 4.14043 420.856
1723 1 -55.0863 4.11299 427.781 -55.0863 4.11299 427.781
1440 1 -51.614 4.12836 424.036 -51.614 4.12836 424.036
1733 1 -48.8177 4.10483 430.216 -48.8177 4.10483 430.216
2018 1 -50.5539 4.09732 432.088 -50.5539 4.09732 432.088
2015 1 -52.2901 4.08978 433.961 -52.2901 4.08978 433.961
2036 1 -40.8125 4.10329 430.778 -40.8125 4.10329 430.778
2032 1 -42.5491 4.09608 432.65 -42.5491 4.09608 432.65
2326 1 -38.8852 1.86259 437.893 -38.8852 1.86259 437.893
1752 1 -37.3387 4.11729 427.034 -37.3387 4.11729 427.034
1457 1 -41.871 4.1337 422.728 -41.871 4.1337 422.728
2043 1 -36.0543 1.14791 431.778 -36.0543 1.14791 431.778
2286 1 -62.8984 1.86506 436.209 -62.8984 1.86506 436.209
2319 1 -43.0003 1.11904 439.266 -43.0003 1.11904 439.266
1436 1 -53.3501 4.12068 425.909 -53.3501 4.12068 425.909
1422 1 -61.3545 4.12063 425.347 -61.3545 4.12063 425.347
1173 1 -37.754 0.448765 421.356 -37.754 0.448765 421.356
2293 1 -59.0088 1.12067 438.143 -59.0088 1.12067 438.143
2289 1 -61.3876 0.384106 437.644 -61.3876 0.384106 437.644
2295 1 -57.498 4.06717 439.579 -57.498 4.06717 439.579
1465 1 -37.1121 1.17788 423.727 -37.1121 1.17788 423.727
2315 1 -45.3791 0.382781 438.767 -45.3791 0.382781 438.767
2331 1 -36.2805 4.08712 435.085 -36.2805 4.08712 435.085
2297 1 -56.6301 1.85721 438.643 -56.6301 1.85721 438.643
2324 1 -39.7534 4.07267 438.83 -39.7534 4.07267 438.83
2306 1 -51.0046 1.12014 438.705 -51.0046 1.12014 438.705
2285 1 -63.1235 0.376563 439.517 -63.1235 0.376563 439.517
1462 1 -38.8494 1.17109 425.599 -38.8494 1.17109 425.599
1751 1 -37.565 2.62912 430.342 -37.565 2.62912 430.342
2329 1 -37.1488 1.86982 436.021 -37.1488 1.86982 436.021
2042 1 -36.9227 3.35812 432.713 -36.9227 3.35812 432.713
2041 1 -37.7911 1.14085 433.649 -37.7911 1.14085 433.649
2593 1 -51.8726 3.33012 439.641 -51.8726 3.33012 439.641
2328 1 -37.3746 0.381437 439.329 -37.3746 0.381437 439.329
2301 1 -54.2513 2.5937 439.142 -54.2513 2.5937 439.142
1466 1 -36.2434 3.39497 422.791 -36.2434 3.39497 422.791
2298 1 -56.4049 3.34573 435.334 -56.4049 3.34573 435.334
2321 1 -42.1322 3.33645 438.33 -42.1322 3.33645 438.33
2313 1 -46.8898 1.86394 437.331 -46.8898 1.86394 437.331
2294 1 -58.1408 3.33817 437.207 -58.1408 3.33817 437.207
2304 1 -52.5154 2.6012 437.269 -52.5154 2.6012 437.269
2300 1 -54.8941 1.86474 436.77 -54.8941 1.86474 436.77
2290 1 -60.5196 2.60161 436.708 -60.5196 2.60161 436.708
2318 1 -43.6429 0.390174 436.894 -43.6429 0.390174 436.894
2327 1 -38.017 4.07994 436.957 -38.017 4.07994 436.957
2004 1 -58.7836 2.60917 434.835 -58.7836 2.60917 434.835
2013 1 -53.1581 1.87228 434.897 -53.1581 1.87228 434.897
2288 1 -62.0304 4.08255 435.272 -62.0304 4.08255 435.272
2037 1 -40.1701 0.404751 433.15 -40.1701 0.404751 433.15
1739 1 -45.3449 4.11962 426.471 -45.3449 4.11962 426.471
1753 1 -36.6965 0.418878 429.406 -36.6965 0.418878 429.406
2307 1 -50.7793 2.60871 435.397 -50.7793 2.60871 435.397
2314 1 -46.0217 4.08137 436.395 -46.0217 4.08137 436.395
2040 1 -38.4334 0.41188 431.278 -38.4334 0.41188 431.278
2320 1 -42.7748 2.60758 435.958 -42.7748 2.60758 435.958
2292 1 -59.6516 0.391662 435.771 -59.6516 0.391662 435.771
2311 1 -48.4005 3.34507 435.896 -48.4005 3.34507 435.896
2302 1 -54.0261 4.08224 435.834 -54.0261 4.08224 435.834
2296 1 -57.2729 1.12822 436.271 -57.2729 1.12822 436.271
1463 1 -38.6228 2.65914 422.292 -38.6228 2.65914 422.292
2287 1 -62.2555 2.59406 438.581 -62.2555 2.59406 438.581
2291 1 -59.8768 3.33062 439.08 -59.8768 3.33062 439.08
2317 1 -44.511 2.60021 437.831 -44.511 2.60021 437.831
2038 1 -39.3018 2.62206 432.214 -39.3018 2.62206 432.214
2305 1 -51.6473 0.391232 436.333 -51.6473 0.391232 436.333
2332 1 -35.6381 0.388665 437.457 -35.6381 0.388665 437.457
1709 1 -63.0906 4.11305 427.22 -63.0906 4.11305 427.22
1468 1 -35.3746 1.1846 421.856 -35.3746 1.1846 421.856
1454 1 -43.6081 4.12677 424.599 -43.6081 4.12677 424.599
1429 1 -57.8824 4.13604 421.602 -57.8824 4.13604 421.602
1133 1 -62.6397 2.66255 420.603 -62.6397 2.66255 420.603
1175 1 -36.8852 2.66584 420.42 -36.8852 2.66584 420.42
2616 1 -38.4683 1.10303 443.573 -38.4683 1.10303 443.573
2901 1 -40.2044 1.09563 445.446 -40.2044 1.09563 445.446
2907 1 -36.9577 4.04937 445.009 -36.9577 4.04937 445.009
3194 1 -38.051 0.343395 449.253 -38.051 0.343395 449.253
2587 1 -55.1193 0.376223 440.078 -55.1193 0.376223 440.078
2597 1 -49.4939 4.06649 440.14 -49.4939 4.06649 440.14
2584 1 -56.8552 0.368738 441.951 -56.8552 0.368738 441.951
2581 1 -58.5911 0.361265 443.824 -58.5911 0.361265 443.824
2868 1 -60.3269 0.353793 445.696 -60.3269 0.353793 445.696
2865 1 -62.0626 0.346306 447.569 -62.0626 0.346306 447.569
2601 1 -47.1152 0.375353 440.64 -47.1152 0.375353 440.64
2598 1 -48.8512 0.367912 442.512 -48.8512 0.367912 442.512
2885 1 -50.5871 0.360482 444.385 -50.5871 0.360482 444.385
2882 1 -52.323 0.353084 446.258 -52.323 0.353084 446.258
2879 1 -54.0588 0.345732 448.131 -54.0588 0.345732 448.131
2612 1 -40.847 0.366755 443.074 -40.847 0.366755 443.074
2898 1 -42.583 0.359338 444.946 -42.583 0.359338 444.946
2895 1 -44.3189 0.3519 446.819 -44.3189 0.3519 446.819
3180 1 -46.0547 0.344471 448.692 -46.0547 0.344471 448.692
2576 1 -61.6127 3.32309 440.953 -61.6127 3.32309 440.953
2574 1 -63.3485 3.31555 442.825 -63.3485 3.31555 442.825
2589 1 -53.6086 3.32266 441.514 -53.6086 3.32266 441.514
2586 1 -55.3445 3.31521 443.387 -55.3445 3.31521 443.387
2874 1 -57.0803 3.30778 445.259 -57.0803 3.30778 445.259
2871 1 -58.8161 3.30037 447.132 -58.8161 3.30037 447.132
3155 1 -60.5519 3.29296 449.005 -60.5519 3.29296 449.005
2607 1 -43.8684 3.32907 440.203 -43.8684 3.32907 440.203
2604 1 -45.6044 3.32165 442.075 -45.6044 3.32165 442.075
2600 1 -47.3404 3.31422 443.948 -47.3404 3.31422 443.948
2887 1 -49.0763 3.30679 445.821 -49.0763 3.30679 445.821
2884 1 -50.8122 3.2994 447.693 -50.8122 3.2994 447.693
3168 1 -52.548 3.29205 449.566 -52.548 3.29205 449.566
2900 1 -41.0723 3.30565 446.382 -41.0723 3.30565 446.382
2897 1 -42.8082 3.29821 448.255 -42.8082 3.29821 448.255
2582 1 -58.366 1.84969 440.515 -58.366 1.84969 440.515
2579 1 -60.1019 1.84217 442.388 -60.1019 1.84217 442.388
2866 1 -61.8377 1.83466 444.261 -61.8377 1.83466 444.261
2578 1 -60.7447 1.11313 440.016 -60.7447 1.11313 440.016
2595 1 -50.3619 1.84904 441.077 -50.3619 1.84904 441.077
2592 1 -52.0978 1.84159 442.949 -52.0978 1.84159 442.949
2880 1 -53.8337 1.83418 444.822 -53.8337 1.83418 444.822
2877 1 -55.5696 1.8268 446.695 -55.5696 1.8268 446.695
2873 1 -57.3054 1.81945 448.568 -57.3054 1.81945 448.568
2609 1 -42.3577 1.84791 441.638 -42.3577 1.84791 441.638
2606 1 -44.0937 1.84049 443.511 -44.0937 1.84049 443.511
2892 1 -45.8297 1.83306 445.383 -45.8297 1.83306 445.383
2890 1 -47.5655 1.82563 447.256 -47.5655 1.82563 447.256
3174 1 -49.3014 1.81823 449.129 -49.3014 1.81823 449.129
2618 1 -37.6003 3.32044 442.637 -37.6003 3.32044 442.637
2585 1 -55.9873 2.58621 441.015 -55.9873 2.58621 441.015
2583 1 -57.7232 2.57873 442.887 -57.7232 2.57873 442.887
2870 1 -59.459 2.57126 444.76 -59.459 2.57126 444.76
2867 1 -61.1948 2.56378 446.633 -61.1948 2.56378 446.633
2863 1 -62.9305 2.55628 448.506 -62.9305 2.55628 448.506
2599 1 -47.9832 2.58536 441.576 -47.9832 2.58536 441.576
2596 1 -49.7191 2.57792 443.449 -49.7191 2.57792 443.449
2883 1 -51.455 2.5705 445.321 -51.455 2.5705 445.321
2881 1 -53.1909 2.56313 447.194 -53.1909 2.56313 447.194
3164 1 -54.9268 2.5558 449.067 -54.9268 2.5558 449.067
2610 1 -41.715 2.57678 444.01 -41.715 2.57678 444.01
2896 1 -43.451 2.56935 445.883 -43.451 2.56935 445.883
2893 1 -45.1868 2.56191 447.755 -45.1868 2.56191 447.755
3178 1 -46.9226 2.5545 449.628 -46.9226 2.5545 449.628
2575 1 -62.4806 1.10559 441.889 -62.4806 1.10559 441.889
2591 1 -52.7406 1.11266 440.577 -52.7406 1.11266 440.577
2588 1 -54.4765 1.1052 442.45 -54.4765 1.1052 442.45
2876 1 -56.2124 1.09777 444.323 -56.2124 1.09777 444.323
2872 1 -57.9482 1.09035 446.196 -57.9482 1.09035 446.196
2869 1 -59.684 1.08294 448.068 -59.684 1.08294 448.068
2605 1 -44.7364 1.11164 441.139 -44.7364 1.11164 441.139
2602 1 -46.4724 1.10421 443.011 -46.4724 1.10421 443.011
2889 1 -48.2084 1.09677 444.884 -48.2084 1.09677 444.884
2886 1 -49.9443 1.08936 446.757 -49.9443 1.08936 446.757
3170 1 -51.6801 1.08199 448.63 -51.6801 1.08199 448.63
2899 1 -41.9403 1.0882 447.318 -41.9403 1.0882 447.318
3184 1 -43.676 1.08076 449.191 -43.676 1.08076 449.191
2580 1 -59.2339 4.05966 441.452 -59.2339 4.05966 441.452
2577 1 -60.9698 4.05214 443.324 -60.9698 4.05214 443.324
2864 1 -62.7056 4.04462 445.197 -62.7056 4.04462 445.197
2862 1 -63.5734 1.82713 446.134 -63.5734 1.82713 446.134
2594 1 -51.2299 4.05904 442.013 -51.2299 4.05904 442.013
2590 1 -52.9658 4.05161 443.886 -52.9658 4.05161 443.886
2878 1 -54.7017 4.04421 445.759 -54.7017 4.04421 445.759
2875 1 -56.4375 4.03684 447.631 -56.4375 4.03684 447.631
3159 1 -58.1733 4.02951 449.504 -58.1733 4.02951 449.504
2611 1 -41.4896 4.06533 440.702 -41.4896 4.06533 440.702
2608 1 -43.2257 4.05793 442.574 -43.2257 4.05793 442.574
2894 1 -44.9617 4.0505 444.447 -44.9617 4.0505 444.447
2891 1 -46.6976 4.04307 446.32 -46.6976 4.04307 446.32
2888 1 -48.4334 4.03565 448.192 -48.4334 4.03565 448.192
2904 1 -38.6937 4.04196 446.881 -38.6937 4.04196 446.881
2621 1 -35.864 3.32776 440.765 -35.864 3.32776 440.765
2617 1 -38.2428 2.59152 440.265 -38.2428 2.59152 440.265
2614 1 -39.979 2.58417 442.138 -39.979 2.58417 442.138
2908 1 -36.3151 0.350838 447.381 -36.3151 0.350838 447.381
2619 1 -36.7321 1.11038 441.701 -36.7321 1.11038 441.701
2906 1 -37.1831 2.56085 448.317 -37.1831 2.56085 448.317
2905 1 -37.8257 1.83194 445.945 -37.8257 1.83194 445.945
2620 1 -36.0897 1.83933 444.073 -36.0897 1.83933 444.073
3190 1 -40.4295 4.03452 448.754 -40.4295 4.03452 448.754
2902 1 -39.5616 1.82451 447.818 -39.5616 1.82451 447.818
2903 1 -39.3364 3.31307 444.509 -39.3364 3.31307 444.509
2615 1 -39.1109 0.374128 441.201 -39.1109 0.374128 441.201
2909 1 -35.4471 2.56827 446.445 -35.4471 2.56827 446.445
14 1 -54.7891 4.24502 400.01 -54.7891 4.24502 400.01
7 1 -59.4811 2.74172 399.1 -59.4811 2.74172 399.1
25 1 -46.7792 4.236 400.484 -46.7792 4.236 400.484
38 1 -38.765 4.19328 400.999 -38.765 4.19328 400.999
23 1 -48.5181 4.2126 402.35 -48.5181 4.2126 402.35
287 1 -51.9897 4.19012 406.064 -51.9897 4.19012 406.064
878 1 -42.9279 4.16349 414.679 -42.9279 4.16349 414.679
579 1 -49.1988 4.17327 412.244 -49.1988 4.17327 412.244
585 1 -45.7219 4.18712 408.503 -45.7219 4.18712 408.503
290 1 -50.2559 4.19818 404.193 -50.2559 4.19818 404.193
11 1 -56.5153 4.19436 401.786 -56.5153 4.19436 401.786
595 1 -39.4522 4.17703 410.936 -39.4522 4.17703 410.936
1134 1 -62.4142 4.15107 417.294 -62.4142 4.15107 417.294
283 1 -53.7301 4.1864 407.934 -53.7301 4.1864 407.934
582 1 -47.46 4.17988 410.373 -47.46 4.17988 410.373
276 1 -58.2646 4.20689 403.639 -58.2646 4.20689 403.639
569 1 -55.4706 4.18265 409.802 -55.4706 4.18265 409.802
847 1 -60.6782 4.15893 415.421 -60.6782 4.15893 415.421
556 1 -63.4735 4.18182 409.239 -63.4735 4.18182 409.239
272 1 -60.0104 4.20588 405.488 -60.0104 4.20588 405.488
3 1 -61.304 2.75488 400.782 -61.304 2.75488 400.782
35 1 -40.5048 4.20939 402.876 -40.5048 4.20939 402.876
598 1 -37.7147 4.18415 409.064 -37.7147 4.18415 409.064
850 1 -58.9426 4.16712 413.547 -58.9426 4.16712 413.547
304 1 -42.2433 4.20218 404.759 -42.2433 4.20218 404.759