ITEM: TIMESTEP
0
ITEM: NUMBER OF ATOMS
4630
ITEM: BOX BOUNDS xy xz yz pp pp pp
-6.2551029637224076e+01 1.0557006148542408e+02 0.0000000000000000e+00
0.0000000000000000e+00 4.4274527100805940e+00 0.0000000000000000e+00
3.8000000000000000e+02 5.0000000000000000e+02 0.0000000000000000e+00
ITEM: ATOMS id type x y z xu yu zu
7 1 -58.3901 2.98603 398.765 -58.3901 2.98603 398.765
27 1 -45.0378 2.27473 399.295 -45.0378 2.27473 399.295
36 1 -39.48 1.53193 399.351 -39.48 1.53193 399.351
45 1 -33.9267 0.791626 399.413 -33.9267 0.791626 399.413
85 1 -8.52622 0.791071 399.24 -8.52622 0.791071 399.24
94 1 -2.96986 0.0486797 399.303 -2.96986 0.0486797 399.303
103 1 2.5806 3.73721 399.37 2.5806 3.73721 399.37
112 1 8.12872 2.99897 399.438 8.12872 2.99897 399.438
152 1 33.4964 3.01221 399.279 33.4964 3.01221 399.279
161 1 39.046 2.27179 399.34 39.046 2.27179 399.34
170 1 44.5906 1.53418 399.404 44.5906 1.53418 399.404
227 1 81.0403 0.0659527 399.332 81.0403 0.0659527 399.332
236 1 86.5927 3.75148 399.384 86.5927 3.75148 399.384
245 1 92.1412 3.01246 399.441 92.1412 3.01246 399.441
5 1 -59.2988 0.768463 399.563 -59.2988 0.768463 399.563
2 1 -61.0503 0.780213 401.369 -61.0503 0.780213 401.369
3 1 -60.2106 2.99304 400.455 -60.2106 2.99304 400.455
1 1 -61.8857 2.95942 402.322 106.235 2.95942 402.322
4 1 -59.544 3.70399 402.804 -59.544 3.70399 402.804
9 1 -56.9243 1.42874 400.023 -56.9243 1.42874 400.023
8 1 -57.7953 3.687 400.989 -57.7953 3.687 400.989
10 1 -56.3182 2.1954 402.394 -56.3182 2.1954 402.394
6 1 -58.6791 1.49268 401.868 -58.6791 1.49268 401.868
11 1 -55.4681 4.42156 401.474 -55.4681 4.42156 401.474
12 1 -54.6149 2.24876 400.513 -54.6149 2.24876 400.513
16 1 -52.2557 2.9412 400.972 -52.2557 2.9412 400.972
15 1 -53.1168 0.735492 401.962 -53.1168 0.735492 401.962
14 1 -53.7871 0.0504397 399.667 -53.7871 0.0504397 399.667
17 1 -51.4068 0.742133 400.108 -51.4068 0.742133 400.108
13 1 -53.9653 2.93627 402.875 -53.9653 2.93627 402.875
22 1 -48.2058 3.71568 399.706 -48.2058 3.71568 399.706
20 1 -49.0628 1.49538 400.562 -49.0628 1.49538 400.562
19 1 -49.9285 3.68389 401.502 -49.9285 3.68389 401.502
18 1 -50.771 1.46347 402.448 -50.771 1.46347 402.448
21 1 -48.4374 2.20991 402.947 -48.4374 2.20991 402.947
23 1 -47.5805 0.00863926 402.024 -47.5805 0.00863926 402.024
26 1 -45.2233 0.738223 402.494 -45.2233 0.738223 402.494
24 1 -46.7366 2.22738 401.086 -46.7366 2.22738 401.086
28 1 -44.3722 2.96069 401.585 -44.3722 2.96069 401.585
25 1 -45.8718 0.0457564 400.142 -45.8718 0.0457564 400.142
29 1 -43.5081 0.736037 400.596 -43.5081 0.736037 400.596
31 1 -42.6549 2.9644 399.735 -42.6549 2.9644 399.735
34 1 -40.3153 3.73076 400.196 -40.3153 3.73076 400.196
32 1 -42.0229 3.69076 402.076 -42.0229 3.69076 402.076
33 1 -41.1849 1.48559 401.138 -41.1849 1.48559 401.138
30 1 -42.8852 1.4658 403 -42.8852 1.4658 403
35 1 -39.6701 4.42498 402.551 -39.6701 4.42498 402.551
40 1 -37.0996 2.22331 399.794 -37.0996 2.22331 399.794
37 1 -38.8195 2.21939 401.643 -38.8195 2.21939 401.643
41 1 -36.4703 2.94999 402.136 -36.4703 2.94999 402.136
38 1 -37.953 4.42221 400.655 -37.953 4.42221 400.655
39 1 -37.333 0.725363 403.059 -37.333 0.725363 403.059
43 1 -34.7616 2.99045 400.257 -34.7616 2.99045 400.257
42 1 -35.6312 0.745045 401.199 -35.6312 0.745045 401.199
44 1 -34.1178 3.68431 402.612 -34.1178 3.68431 402.612
46 1 -33.2668 1.47882 401.704 -33.2668 1.47882 401.704
47 1 -32.4 3.68182 400.717 -32.4 3.68182 400.717
49 1 -31.5466 1.48288 399.856 -31.5466 1.48288 399.856
52 1 -29.2092 2.24999 400.32 -29.2092 2.24999 400.32
50 1 -30.9181 2.20943 402.198 -30.9181 2.20943 402.198
51 1 -30.0789 0.00456814 401.262 -30.0789 0.00456814 401.262
53 1 -28.566 2.9436 402.675 -28.566 2.9436 402.675
54 1 -28.3745 0.051122 399.475 -28.3745 0.051122 399.475
48 1 -31.781 4.41222 403.122 -31.781 4.41222 403.122
58 1 -25.9947 0.742169 399.919 -25.9947 0.742169 399.919
59 1 -25.3667 1.46864 402.262 -25.3667 1.46864 402.262
56 1 -26.848 2.94116 400.78 -26.848 2.94116 400.78
55 1 -27.7149 0.738107 401.767 -27.7149 0.738107 401.767
60 1 -24.5274 3.69127 401.326 -24.5274 3.69127 401.326
57 1 -26.2296 3.67143 403.185 -26.2296 3.67143 403.185
61 1 -23.6579 1.50922 400.384 -23.6579 1.50922 400.384
63 1 -22.8234 3.73778 399.539 -22.8234 3.73778 399.539
62 1 -23.0149 2.20257 402.74 -23.0149 2.20257 402.74
64 1 -22.1638 4.4245 401.832 -22.1638 4.4245 401.832
65 1 -21.2972 2.20004 400.844 -21.2972 2.20004 400.844
66 1 -20.679 2.93025 403.25 -20.679 2.93025 403.25
70 1 -18.1075 0.767769 400.448 -18.1075 0.767769 400.448
68 1 -19.816 0.727415 402.327 -19.816 0.727415 402.327
69 1 -18.9773 2.94983 401.391 -18.9773 2.94983 401.391
67 1 -20.4439 0.0010032 399.983 -20.4439 0.0010032 399.983
72 1 -17.2753 2.99597 399.602 -17.2753 2.99597 399.602
71 1 -17.464 1.4612 402.804 -17.464 1.4612 402.804
75 1 -14.8969 3.68745 400.046 -14.8969 3.68745 400.046
74 1 -15.7472 1.45917 400.907 -15.7472 1.45917 400.907
73 1 -16.6145 3.68285 401.895 -16.6145 3.68285 401.895
76 1 -14.2653 4.40875 402.386 -14.2653 4.40875 402.386
77 1 -13.4201 2.20104 401.441 -13.4201 2.20104 401.441
348 1 -15.1255 2.18616 403.31 -15.1255 2.18616 403.31
80 1 -11.6946 2.23239 399.648 -11.6946 2.23239 399.648
81 1 -11.0722 2.95279 401.965 -11.0722 2.95279 401.965
78 1 -12.553 0.0121829 400.502 -12.553 0.0121829 400.502
79 1 -11.9308 0.726938 402.887 -11.9308 0.726938 402.887
83 1 -9.36106 2.98959 400.086 -9.36106 2.98959 400.086
82 1 -10.2271 0.743853 401.029 -10.2271 0.743853 401.029
87 1 -6.99798 3.67983 400.542 -6.99798 3.67983 400.542
84 1 -8.7153 3.68215 402.439 -8.7153 3.68215 402.439
86 1 -7.8632 1.47704 401.531 -7.8632 1.47704 401.531
89 1 -6.14396 1.48071 399.682 -6.14396 1.48071 399.682
90 1 -5.5147 2.20722 402.024 -5.5147 2.20722 402.024
88 1 -6.3779 4.40972 402.948 -6.3779 4.40972 402.948
92 1 -3.80548 2.24749 400.147 -3.80548 2.24749 400.147
93 1 -3.1628 2.94155 402.502 -3.1628 2.94155 402.502
91 1 -4.67581 0.0021693 401.088 -4.67581 0.0021693 401.088
96 1 -1.44415 2.93915 400.608 -1.44415 2.93915 400.608
95 1 -2.31157 0.736068 401.595 -2.31157 0.736068 401.595
98 1 -0.590368 0.740278 399.748 -0.590368 0.740278 399.748
100 1 0.875935 3.69017 401.156 0.875935 3.69017 401.156
99 1 0.0362572 1.46725 402.091 0.0362572 1.46725 402.091
97 1 -0.826951 3.66984 403.014 -0.826951 3.66984 403.014
101 1 1.74596 1.50851 400.214 1.74596 1.50851 400.214
102 1 2.38752 2.20197 402.57 2.38752 2.20197 402.57
105 1 4.10616 2.20032 400.676 4.10616 2.20032 400.676
104 1 3.23881 4.42426 401.663 3.23881 4.42426 401.663
108 1 5.58553 0.728433 402.16 5.58553 0.728433 402.16
107 1 4.95956 0.00146367 399.816 4.95956 0.00146367 399.816
106 1 4.72246 2.93075 403.083 4.72246 2.93075 403.083
110 1 7.29481 0.77026 400.282 7.29481 0.77026 400.282
111 1 7.93603 1.46327 402.639 7.93603 1.46327 402.639
109 1 6.42508 2.95169 401.225 6.42508 2.95169 401.225
113 1 8.78706 3.68574 401.732 8.78706 3.68574 401.732
114 1 9.65425 1.46207 400.744 9.65425 1.46207 400.744
116 1 10.5073 3.69067 399.884 10.5073 3.69067 399.884
118 1 11.9722 2.21369 401.294 11.9722 2.21369 401.294
117 1 11.1329 4.41763 402.229 11.1329 4.41763 402.229
121 1 13.6748 2.26112 399.506 13.6748 2.26112 399.506
120 1 13.4828 0.725022 402.709 13.4828 0.725022 402.709
119 1 12.8416 0.0324171 400.351 12.8416 0.0324171 400.351
115 1 10.2701 2.19231 403.152 10.2701 2.19231 403.152
122 1 14.3335 2.94762 401.8 14.3335 2.94762 401.8
123 1 15.2004 0.724165 400.813 15.2004 0.724165 400.813
125 1 16.053 2.95272 399.953 16.053 2.95272 399.953
126 1 16.6786 3.67968 402.298 16.6786 3.67968 402.298
127 1 17.5176 1.47592 401.363 17.5176 1.47592 401.363
124 1 15.8162 1.45424 403.222 15.8162 1.45424 403.222
130 1 19.2188 1.52343 399.575 19.2188 1.52343 399.575
128 1 18.3865 3.7222 400.42 18.3865 3.7222 400.42
129 1 19.0279 4.41438 402.778 19.0279 4.41438 402.778
131 1 19.8782 2.20959 401.869 19.8782 2.20959 401.869
132 1 20.7446 4.41363 400.881 20.7446 4.41363 400.881
133 1 21.3606 0.716119 403.29 21.3606 0.716119 403.29
134 1 21.5968 2.21469 400.02 21.5968 2.21469 400.02
136 1 23.0609 0.737695 401.431 23.0609 0.737695 401.431
135 1 22.2228 2.94158 402.366 22.2228 2.94158 402.366
139 1 24.7593 0.784874 399.641 24.7593 0.784874 399.641
137 1 23.9296 2.98401 400.487 23.9296 2.98401 400.487
138 1 24.5722 3.67613 402.845 24.5722 3.67613 402.845
141 1 26.2874 3.67597 400.947 26.2874 3.67597 400.947
140 1 25.4207 1.4711 401.935 25.4207 1.4711 401.935
142 1 27.1362 1.4769 400.085 27.1362 1.4769 400.085
143 1 27.7668 2.19841 402.427 27.7668 2.19841 402.427
144 1 28.6111 4.41925 401.483 28.6111 4.41925 401.483
145 1 29.4768 2.23113 400.543 29.4768 2.23113 400.543
147 1 30.3326 0.0238626 399.687 30.3326 0.0238626 399.687
146 1 30.0985 2.94518 402.93 30.0985 2.94518 402.93
150 1 32.6638 0.783188 400.126 32.6638 0.783188 400.126
148 1 30.9557 0.74452 402.007 30.9557 0.74452 402.007
149 1 31.7996 2.96426 401.071 31.7996 2.96426 401.071
153 1 34.1609 3.69746 401.571 34.1609 3.69746 401.571
151 1 33.3102 1.4744 402.481 33.3102 1.4744 402.481
156 1 35.8775 3.70203 399.721 35.8775 3.70203 399.721
154 1 35.025 1.47364 400.582 35.025 1.47364 400.582
157 1 36.5067 0.00123562 402.065 36.5067 0.00123562 402.065
155 1 35.645 2.203 402.989 35.645 2.203 402.989
158 1 37.3444 2.22454 401.129 37.3444 2.22454 401.129
159 1 38.2132 0.043102 400.186 38.2132 0.043102 400.186
162 1 39.7064 2.95837 401.634 39.7064 2.95837 401.634
160 1 38.8567 0.735806 402.543 38.8567 0.735806 402.543
163 1 40.5726 0.734838 400.646 40.5726 0.734838 400.646
165 1 41.4247 2.96343 399.784 41.4247 2.96343 399.784
164 1 41.1903 1.46485 403.054 41.1903 1.46485 403.054
168 1 43.7587 3.73292 400.25 43.7587 3.73292 400.25
167 1 42.8904 1.48659 401.194 42.8904 1.48659 401.194
166 1 42.052 3.69034 402.129 42.052 3.69034 402.129
169 1 44.4017 4.42507 402.607 44.4017 4.42507 402.607
171 1 45.2515 2.22039 401.698 45.2515 2.22039 401.698
174 1 46.969 2.22571 399.848 46.969 2.22571 399.848
175 1 47.5965 2.95243 402.193 47.5965 2.95243 402.193
172 1 46.1174 4.42458 400.71 46.1174 4.42458 400.71
173 1 46.735 0.726796 403.118 46.735 0.726796 403.118
177 1 49.3027 2.99522 400.314 49.3027 2.99522 400.314
176 1 48.4346 0.748835 401.258 48.4346 0.748835 401.258
179 1 50.1341 0.796454 399.467 50.1341 0.796454 399.467
181 1 51.6611 3.68671 400.773 51.6611 3.68671 400.773
178 1 49.9459 3.68705 402.671 49.9459 3.68705 402.671
180 1 50.7954 1.48243 401.761 50.7954 1.48243 401.761
183 1 52.5124 1.48781 399.911 52.5124 1.48781 399.911
184 1 53.1402 2.21438 402.256 53.1402 2.21438 402.256
186 1 54.8459 2.25722 400.376 54.8459 2.25722 400.376
187 1 55.4895 2.94884 402.733 55.4895 2.94884 402.733
188 1 55.6769 0.0584263 399.53 55.6769 0.0584263 399.53
185 1 53.9781 0.0108346 401.321 53.9781 0.0108346 401.321
182 1 52.279 4.41615 403.181 52.279 4.41615 403.181
189 1 56.3388 0.744236 401.823 56.3388 0.744236 401.823
192 1 58.0553 0.749612 399.973 58.0553 0.749612 399.973
194 1 59.5212 3.69996 401.382 59.5212 3.69996 401.382
193 1 58.6835 1.47606 402.318 58.6835 1.47606 402.318
190 1 57.2042 2.94854 400.835 57.2042 2.94854 400.835
191 1 57.8225 3.67783 403.243 57.8225 3.67783 403.243
195 1 60.3887 1.51886 400.437 60.3887 1.51886 400.437
197 1 61.2193 3.74748 399.591 61.2193 3.74748 399.591
199 1 62.747 2.21 400.896 62.747 2.21 400.896
196 1 61.0328 2.21035 402.794 61.0328 2.21035 402.794
198 1 61.8818 0.00570904 401.884 61.8818 0.00570904 401.884
200 1 63.3658 2.9392 403.304 63.3658 2.9392 403.304
202 1 64.2265 0.737378 402.379 64.2265 0.737378 402.379
201 1 63.5978 0.0110199 400.033 63.5978 0.0110199 400.033
206 1 66.7614 3.00867 399.65 66.7614 3.00867 399.65
204 1 65.9311 0.780068 400.497 65.9311 0.780068 400.497
203 1 65.0639 2.96125 401.442 65.0639 2.96125 401.442
205 1 66.5759 1.47144 402.854 66.5759 1.47144 402.854
207 1 67.4247 3.69417 401.944 67.4247 3.69417 401.944
209 1 69.14 3.69929 400.092 69.14 3.69929 400.092
208 1 68.2893 1.47086 400.955 68.2893 1.47086 400.955
211 1 70.6062 2.22166 401.501 70.6062 2.22166 401.501
210 1 69.7696 4.42557 402.437 69.7696 4.42557 402.437
212 1 71.4734 0.040381 400.555 71.4734 0.040381 400.555
214 1 72.3016 2.26862 399.707 72.3016 2.26862 399.707
217 1 74.6793 2.96007 400.148 74.6793 2.96007 400.148
216 1 73.8318 0.731756 401.011 73.8318 0.731756 401.011
215 1 72.9667 2.95441 402.001 72.9667 2.95441 402.001
213 1 72.1196 0.73202 402.912 72.1196 0.73202 402.912
218 1 75.3137 3.68103 402.489 75.3137 3.68103 402.489
220 1 77.0211 3.71336 400.601 77.0211 3.71336 400.601
219 1 76.1566 1.47424 401.543 76.1566 1.47424 401.543
222 1 77.8759 1.50604 399.744 77.8759 1.50604 399.744
223 1 78.5026 2.2263 402.063 78.5026 2.2263 402.063
221 1 77.6465 4.42713 402.987 77.6465 4.42713 402.987
224 1 79.3453 0.018313 401.126 79.3453 0.018313 401.126
225 1 80.2084 2.26444 400.179 80.2084 2.26444 400.179
229 1 82.5708 2.95451 400.632 82.5708 2.95451 400.632
228 1 81.7079 0.751147 401.622 81.7079 0.751147 401.622
226 1 80.8582 2.95571 402.532 80.8582 2.95571 402.532
231 1 83.4225 0.755409 399.77 83.4225 0.755409 399.77
234 1 85.7601 1.52285 400.23 85.7601 1.52285 400.23
233 1 84.8921 3.70462 401.174 84.8921 3.70462 401.174
235 1 86.4068 2.2159 402.586 86.4068 2.2159 402.586
232 1 84.0554 1.48168 402.112 84.0554 1.48168 402.112
230 1 83.1945 3.68366 403.037 83.1945 3.68366 403.037
241 1 89.6032 0.742038 402.168 89.6032 0.742038 402.168
238 1 88.121 2.2143 400.687 88.121 2.2143 400.687
240 1 88.9725 0.0154118 399.825 88.9725 0.0154118 399.825
237 1 87.2557 0.0107668 401.676 87.2557 0.0107668 401.676
239 1 88.7422 2.94431 403.093 88.7422 2.94431 403.093
242 1 90.4409 2.96529 401.231 90.4409 2.96529 401.231
243 1 91.3086 0.783748 400.287 91.3086 0.783748 400.287
247 1 93.6689 1.47491 400.744 93.6689 1.47491 400.744
246 1 92.8038 3.69886 401.733 92.8038 3.69886 401.733
244 1 91.9544 1.47646 402.643 91.9544 1.47646 402.643
254 1 97.6869 2.27083 399.499 97.6869 2.27083 399.499
249 1 94.521 3.70346 399.883 94.521 3.70346 399.883
253 1 97.5024 0.737245 402.701 97.5024 0.737245 402.701
251 1 95.988 2.22528 401.29 95.988 2.22528 401.29
252 1 96.8571 0.0431581 400.346 96.8571 0.0431581 400.346
250 1 95.1509 0.0025648 402.226 95.1509 0.0025648 402.226
248 1 94.2895 2.20501 403.151 94.2895 2.20501 403.151
258 1 100.065 2.96068 399.941 100.065 2.96068 399.941
255 1 98.3505 2.95885 401.792 98.3505 2.95885 401.792
259 1 100.694 3.696 402.289 100.694 3.696 402.289
260 1 101.533 1.4954 401.358 101.533 1.4954 401.358
256 1 99.2182 0.734502 400.803 99.2182 0.734502 400.803
257 1 99.8363 1.46977 403.212 99.8363 1.46977 403.212
263 1 103.231 1.53968 399.591 103.231 1.53968 399.591
261 1 102.383 3.74418 400.413 102.383 3.74418 400.413
264 1 103.919 2.21748 401.832 103.919 2.21748 401.832
265 1 104.759 4.41319 400.865 104.759 4.41319 400.865
262 1 103.054 4.42548 402.753 103.054 4.42548 402.753
266 1 105.39 0.724454 403.265 105.39 0.724454 403.265
268 1 -61.238 3.67017 404.705 -61.238 3.67017 404.705
271 1 -59.7477 2.18031 406.155 -59.7477 2.18031 406.155
270 1 -60.3887 1.47169 403.753 -60.3887 1.47169 403.753
267 1 -62.0899 1.44471 405.654 -62.0899 1.44471 405.654
272 1 -58.8986 4.40683 405.209 -58.8986 4.40683 405.209
269 1 -60.6004 4.38229 407.103 -60.6004 4.38229 407.103
277 1 -56.5476 0.708527 405.715 -56.5476 0.708527 405.715
274 1 -58.0455 2.20411 404.261 -58.0455 2.20411 404.261
278 1 -55.6873 2.92618 404.769 -55.6873 2.92618 404.769
275 1 -57.4014 2.91292 406.656 -57.4014 2.91292 406.656
276 1 -57.1887 4.421 403.336 -57.1887 4.421 403.336
279 1 -55.0525 3.6413 407.161 -55.0525 3.6413 407.161
280 1 -54.8288 0.7163 403.835 -54.8288 0.7163 403.835
286 1 -51.6295 3.66674 403.375 -51.6295 3.66674 403.375
282 1 -53.3377 3.65352 405.273 -53.3377 3.65352 405.273
284 1 -52.4809 1.44864 404.335 -52.4809 1.44864 404.335
281 1 -54.196 1.43446 406.22 -54.196 1.43446 406.22
285 1 -51.8483 2.16694 406.725 -51.8483 2.16694 406.725
291 1 -48.6471 0.698914 406.283 -48.6471 0.698914 406.283
288 1 -50.1389 2.18734 404.837 -50.1389 2.18734 404.837
292 1 -47.7931 2.92403 405.338 -47.7931 2.92403 405.338
287 1 -50.9937 4.38895 405.778 -50.9937 4.38895 405.778
290 1 -49.2883 4.41012 403.89 -49.2883 4.41012 403.89
294 1 -46.9369 0.721626 404.394 -46.9369 0.721626 404.394
297 1 -45.4454 3.65614 405.841 -45.4454 3.65614 405.841
296 1 -46.0853 2.94318 403.451 -46.0853 2.94318 403.451
298 1 -44.5905 1.45163 404.893 -44.5905 1.45163 404.893
295 1 -46.2997 1.4327 406.785 -46.2997 1.4327 406.785
300 1 -43.7352 3.67545 403.956 -43.7352 3.67545 403.956
306 1 -40.5332 2.20117 403.507 -40.5332 2.20117 403.507
302 1 -42.2423 2.1831 405.394 -42.2423 2.1831 405.394
304 1 -41.3839 4.40786 404.45 -41.3839 4.40786 404.45
301 1 -43.0962 4.38824 406.342 -43.0962 4.38824 406.342
305 1 -40.7489 0.692656 406.843 -40.7489 0.692656 406.843
307 1 -39.8947 2.91555 405.9 -39.8947 2.91555 405.9
310 1 -38.184 2.93497 404.014 -38.184 2.93497 404.014
312 1 -36.6913 1.44296 405.455 -36.6913 1.44296 405.455
311 1 -37.5456 3.64806 406.402 -37.5456 3.64806 406.402
308 1 -39.039 0.711138 404.952 -39.039 0.711138 404.952
313 1 -35.8327 3.66749 404.511 -35.8327 3.66749 404.511
315 1 -34.9812 1.46068 403.569 -34.9812 1.46068 403.569
316 1 -34.3438 2.17528 405.961 -34.3438 2.17528 405.961
317 1 -33.4877 4.39811 405.013 -33.4877 4.39811 405.013
314 1 -35.1984 4.37998 406.904 -35.1984 4.37998 406.904
319 1 -32.6323 2.19439 404.076 -32.6323 2.19439 404.076
320 1 -31.9948 2.90763 406.464 -31.9948 2.90763 406.464
324 1 -29.4296 0.720003 403.632 -29.4296 0.720003 403.632
321 1 -31.1402 0.702385 405.517 -31.1402 0.702385 405.517
322 1 -30.2812 2.92685 404.574 -30.2812 2.92685 404.574
323 1 -29.6476 3.63943 406.967 -29.6476 3.63943 406.967
325 1 -28.7928 1.43462 406.024 -28.7928 1.43462 406.024
328 1 -27.081 1.45361 404.14 -27.081 1.45361 404.14
326 1 -27.9365 3.65737 405.077 -27.9365 3.65737 405.077
329 1 -26.4439 2.16688 406.528 -26.4439 2.16688 406.528
330 1 -25.5892 4.38902 405.581 -25.5892 4.38902 405.581
331 1 -24.7302 2.18596 404.638 -24.7302 2.18596 404.638
337 1 -21.5301 0.712533 404.204 -21.5301 0.712533 404.204
334 1 -23.242 0.693708 406.088 -23.242 0.693708 406.088
335 1 -22.3857 2.91636 405.141 -22.3857 2.91636 405.141
333 1 -23.8784 4.40652 403.696 -23.8784 4.40652 403.696
338 1 -20.8932 1.42585 406.592 -20.8932 1.42585 406.592
332 1 -24.0969 2.89859 407.031 -24.0969 2.89859 407.031
340 1 -19.1794 1.44475 404.702 -19.1794 1.44475 404.702
342 1 -18.3281 3.66514 403.76 -18.3281 3.66514 403.76
339 1 -20.0386 3.64787 405.646 -20.0386 3.64787 405.646
344 1 -16.8341 2.17402 405.204 -16.8341 2.17402 405.204
343 1 -17.6913 4.37928 406.152 -17.6913 4.37928 406.152
341 1 -18.5461 2.15711 407.096 -18.5461 2.15711 407.096
347 1 -15.3455 0.685781 406.66 -15.3455 0.685781 406.66
349 1 -14.4908 2.9083 405.713 -14.4908 2.9083 405.713
346 1 -15.9793 4.3968 404.267 -15.9793 4.3968 404.267
350 1 -13.6356 0.70592 404.773 -13.6356 0.70592 404.773
351 1 -12.9991 1.42085 407.166 -12.9991 1.42085 407.166
353 1 -12.144 3.64449 406.222 -12.144 3.64449 406.222
352 1 -12.7832 2.92785 403.829 -12.7832 2.92785 403.829
354 1 -11.2889 1.44157 405.279 -11.2889 1.44157 405.279
356 1 -10.4314 3.66613 404.336 -10.4314 3.66613 404.336
358 1 -9.57854 1.45985 403.394 -9.57854 1.45985 403.394
357 1 -9.79644 4.37757 406.728 -9.79644 4.37757 406.728
363 1 -6.5921 2.90504 406.289 -6.5921 2.90504 406.289
359 1 -8.94114 2.17316 405.785 -8.94114 2.17316 405.785
362 1 -7.2289 2.19199 403.902 -7.2289 2.19199 403.902
360 1 -8.08515 4.39581 404.838 -8.08515 4.39581 404.838
364 1 -5.7374 0.699734 405.343 -5.7374 0.699734 405.343
368 1 -4.02664 0.717703 403.458 -4.02664 0.717703 403.458
366 1 -4.87817 2.9244 404.4 -4.87817 2.9244 404.4
369 1 -3.39048 1.43226 405.851 -3.39048 1.43226 405.851
367 1 -4.24538 3.63688 406.794 -4.24538 3.63688 406.794
370 1 -2.53407 3.65531 404.905 -2.53407 3.65531 404.905
372 1 -1.6785 1.45178 403.968 -1.6785 1.45178 403.968
376 1 0.671673 2.1847 404.468 0.671673 2.1847 404.468
373 1 -1.04228 2.165 406.357 -1.04228 2.165 406.357
374 1 -0.18746 4.38746 405.411 -0.18746 4.38746 405.411
379 1 2.15886 0.692791 405.92 2.15886 0.692791 405.92
378 1 1.52364 4.40557 403.526 1.52364 4.40557 403.526
377 1 1.30384 2.8973 406.862 1.30384 2.8973 406.862
383 1 4.50654 1.42572 406.426 4.50654 1.42572 406.426
380 1 3.01529 2.91585 404.973 3.01529 2.91585 404.973
382 1 3.871 0.712449 404.037 3.871 0.712449 404.037
384 1 5.36135 3.64827 405.48 5.36135 3.64827 405.48
385 1 6.22044 1.44565 404.537 6.22044 1.44565 404.537
387 1 7.07231 3.66672 403.595 7.07231 3.66672 403.595
388 1 7.70708 4.3813 405.989 7.70708 4.3813 405.989
386 1 6.85213 2.15824 406.932 6.85213 2.15824 406.932
389 1 8.56338 2.17704 405.043 8.56338 2.17704 405.043
391 1 9.41891 4.40125 404.106 9.41891 4.40125 404.106
392 1 10.0542 0.686986 406.495 10.0542 0.686986 406.495
393 1 10.9088 2.90967 405.549 10.9088 2.90967 405.549
394 1 11.7677 0.707178 404.606 11.7677 0.707178 404.606
396 1 12.6193 2.92839 403.665 12.6193 2.92839 403.665
397 1 13.254 3.64287 406.059 13.254 3.64287 406.059
395 1 12.3992 1.4197 407.002 12.3992 1.4197 407.002
398 1 14.11 1.43871 405.112 14.11 1.43871 405.112
400 1 14.9653 3.66302 404.176 14.9653 3.66302 404.176
401 1 15.6006 4.37613 406.565 15.6006 4.37613 406.565
402 1 16.455 2.17146 405.619 16.455 2.17146 405.619
403 1 17.3135 4.39647 404.676 17.3135 4.39647 404.676
405 1 18.1649 2.19031 403.734 18.1649 2.19031 403.734
406 1 18.7997 2.90471 406.129 18.7997 2.90471 406.129
409 1 20.5104 2.9249 404.245 20.5104 2.9249 404.245
410 1 21.146 3.63797 406.634 21.146 3.63797 406.634
407 1 19.6554 0.700561 405.181 19.6554 0.700561 405.181
404 1 17.9452 0.681492 407.071 17.9452 0.681492 407.071
412 1 22.8584 3.65829 404.744 22.8584 3.65829 404.744
411 1 22 1.43327 405.688 22 1.43327 405.688
415 1 24.3447 2.16579 406.196 24.3447 2.16579 406.196
414 1 23.709 1.45201 403.802 23.709 1.45201 403.802
416 1 25.201 4.38866 405.248 25.201 4.38866 405.248
413 1 23.4906 4.37036 407.139 23.4906 4.37036 407.139
418 1 26.055 2.18471 404.31 26.055 2.18471 404.31
419 1 26.688 2.9009 406.705 26.688 2.9009 406.705
420 1 26.9077 4.40247 403.352 26.9077 4.40247 403.352
421 1 27.5417 0.696764 405.758 27.5417 0.696764 405.758
422 1 28.3959 2.92259 404.817 28.3959 2.92259 404.817
424 1 29.2474 0.717943 403.873 29.2474 0.717943 403.873
426 1 30.7402 3.65915 405.323 30.7402 3.65915 405.323
425 1 29.8862 1.43395 406.267 29.8862 1.43395 406.267
430 1 32.4483 3.67892 403.437 32.4483 3.67892 403.437
428 1 31.5966 1.45695 404.379 31.5966 1.45695 404.379
429 1 32.2314 2.16785 406.773 32.2314 2.16785 406.773
432 1 33.9404 2.18749 404.882 33.9404 2.18749 404.882
431 1 33.0857 4.39159 405.83 33.0857 4.39159 405.83
435 1 35.4325 0.696784 406.334 35.4325 0.696784 406.334
436 1 36.286 2.91965 405.387 36.286 2.91965 405.387
434 1 34.7954 4.41185 403.945 34.7954 4.41185 403.945
440 1 37.9942 2.93894 403.5 37.9942 2.93894 403.5
438 1 37.1439 0.717512 404.442 37.1439 0.717512 404.442
439 1 37.7772 1.42929 406.838 37.7772 1.42929 406.838
442 1 39.486 1.44897 404.946 39.486 1.44897 404.946
441 1 38.6309 3.65278 405.894 38.6309 3.65278 405.894
444 1 40.3402 3.67349 404.008 40.3402 3.67349 404.008
446 1 41.8308 2.18159 405.451 41.8308 2.18159 405.451
445 1 40.9773 4.38597 406.398 40.9773 4.38597 406.398
450 1 43.5393 2.20082 403.564 43.5393 2.20082 403.564
451 1 44.1756 2.91467 405.959 44.1756 2.91467 405.959
448 1 42.6886 4.40682 404.507 42.6886 4.40682 404.507
449 1 43.3218 0.691172 406.902 43.3218 0.691172 406.902
452 1 45.0307 0.710782 405.011 45.0307 0.710782 405.011
454 1 45.885 2.93533 404.073 45.885 2.93533 404.073
457 1 48.2332 3.66866 404.571 48.2332 3.66866 404.571
455 1 46.522 3.64776 406.462 46.522 3.64776 406.462
456 1 47.3755 1.44338 405.515 47.3755 1.44338 405.515
459 1 49.0837 1.46274 403.628 49.0837 1.46274 403.628
458 1 48.8665 4.38035 406.966 48.8665 4.38035 406.966
460 1 49.7201 2.17641 406.022 49.7201 2.17641 406.022
463 1 51.4292 2.19717 404.136 51.4292 2.19717 404.136
461 1 50.5751 4.40002 405.074 50.5751 4.40002 405.074
464 1 52.0664 2.90944 406.526 52.0664 2.90944 406.526
465 1 52.9197 0.70509 405.578 52.9197 0.70509 405.578
468 1 54.6275 0.724528 403.691 54.6275 0.724528 403.691
466 1 53.7772 2.93041 404.634 53.7772 2.93041 404.634
469 1 55.2643 1.43805 406.085 55.2643 1.43805 406.085
467 1 54.4108 3.64196 407.029 54.4108 3.64196 407.029
470 1 56.1191 3.66167 405.137 56.1191 3.66167 405.137
472 1 56.973 1.45883 404.199 56.973 1.45883 404.199
475 1 59.321 2.19196 404.696 59.321 2.19196 404.696
473 1 57.6106 2.17099 406.588 57.6106 2.17099 406.588
474 1 58.4637 4.3941 405.64 58.4637 4.3941 405.64
477 1 60.1711 4.41352 403.752 60.1711 4.41352 403.752
481 1 62.5166 0.720235 404.259 62.5166 0.720235 404.259
478 1 60.8084 0.699504 406.146 60.8084 0.699504 406.146
479 1 61.6629 2.9231 405.198 61.6629 2.9231 405.198
482 1 63.1547 1.43235 406.649 63.1547 1.43235 406.649
476 1 59.9551 2.90343 407.091 59.9551 2.90343 407.091
483 1 64.0076 3.65542 405.701 64.0076 3.65542 405.701
486 1 65.7145 3.67472 403.812 65.7145 3.67472 403.812
488 1 67.2066 2.18421 405.257 67.2066 2.18421 405.257
484 1 64.8646 1.45323 404.756 64.8646 1.45323 404.756
487 1 66.3524 4.38817 406.206 66.3524 4.38817 406.206
485 1 65.4993 2.16469 407.151 65.4993 2.16469 407.151
490 1 68.0602 4.40871 404.319 68.0602 4.40871 404.319
493 1 69.5516 2.91636 405.76 69.5516 2.91636 405.76
491 1 68.6989 0.693425 406.708 68.6989 0.693425 406.708
494 1 70.4086 0.71407 404.814 70.4086 0.71407 404.814
492 1 68.909 2.20005 403.363 68.909 2.20005 403.363
496 1 71.2578 2.93533 403.871 71.2578 2.93533 403.871
497 1 71.8968 3.64829 406.264 71.8968 3.64829 406.264
500 1 73.6045 3.66739 404.374 73.6045 3.66739 404.374
498 1 72.7518 1.44382 405.313 72.7518 1.44382 405.313
502 1 74.4559 1.45769 403.415 74.4559 1.45769 403.415
501 1 74.2408 4.38281 406.768 74.2408 4.38281 406.768
503 1 75.0934 2.17876 405.819 75.0934 2.17876 405.819
506 1 76.7965 2.19996 403.931 76.7965 2.19996 403.931
507 1 77.4387 2.9154 406.324 77.4387 2.9154 406.324
504 1 75.9463 4.40463 404.877 75.9463 4.40463 404.877
508 1 78.2916 0.713188 405.379 78.2916 0.713188 405.379
510 1 79.1469 2.93843 404.434 79.1469 2.93843 404.434
512 1 79.9974 0.732868 403.49 79.9974 0.732868 403.49
514 1 81.4919 3.66844 404.932 81.4919 3.66844 404.932
516 1 82.3459 1.46525 403.994 82.3459 1.46525 403.994
513 1 80.6382 1.44512 405.882 80.6382 1.44512 405.882
511 1 79.785 3.64881 406.826 79.785 3.64881 406.826
517 1 82.9862 2.17731 406.381 82.9862 2.17731 406.381
523 1 86.185 0.705391 405.937 86.185 0.705391 405.937
520 1 84.6958 2.19789 404.488 84.6958 2.19789 404.488
518 1 83.8387 4.40011 405.433 83.8387 4.40011 405.433
522 1 85.5451 4.41916 403.544 85.5451 4.41916 403.544
521 1 85.3322 2.90943 406.881 85.3322 2.90943 406.881
526 1 87.8928 0.725815 404.049 87.8928 0.725815 404.049
528 1 89.3857 3.66118 405.489 89.3857 3.66118 405.489
524 1 87.0393 2.92893 404.988 87.0393 2.92893 404.988
529 1 90.2427 1.45877 404.544 90.2427 1.45877 404.544
527 1 88.5329 1.43828 406.437 88.5329 1.43828 406.437
536 1 94.0801 0.699746 406.494 94.0801 0.699746 406.494
531 1 91.0927 3.67994 403.601 91.0927 3.67994 403.601
533 1 92.5864 2.18994 405.045 92.5864 2.18994 405.045
532 1 91.732 4.39407 405.993 91.732 4.39407 405.993
535 1 93.4403 4.41415 404.106 93.4403 4.41415 404.106
530 1 90.8789 2.17075 406.938 90.8789 2.17075 406.938
538 1 95.7903 0.720033 404.602 95.7903 0.720033 404.602
541 1 97.2792 3.65654 406.051 97.2792 3.65654 406.051
540 1 96.64 2.94097 403.659 96.64 2.94097 403.659
537 1 94.9329 2.92253 405.546 94.9329 2.92253 405.546
539 1 96.4263 1.43295 406.995 96.4263 1.43295 406.995
546 1 100.484 2.18463 405.6 100.484 2.18463 405.6
544 1 98.9866 3.67768 404.166 98.9866 3.67768 404.166
542 1 98.1338 1.45289 405.103 98.1338 1.45289 405.103
547 1 101.341 4.40963 404.656 101.341 4.40963 404.656
545 1 99.6294 4.38913 406.55 99.6294 4.38913 406.55
553 1 104.538 2.93413 404.213 104.538 2.93413 404.213
550 1 102.83 2.91516 406.102 102.83 2.91516 406.102
554 1 105.177 3.6483 406.602 105.177 3.6483 406.602
549 1 102.197 2.20328 403.707 102.197 2.20328 403.707
551 1 103.685 0.710765 405.154 103.685 0.710765 405.154
548 1 101.976 0.692341 407.048 101.976 0.692341 407.048
560 1 -59.9614 0.66697 409.497 -59.9614 0.66697 409.497
558 1 -61.4532 2.15769 408.049 -61.4532 2.15769 408.049
562 1 -59.1076 2.89127 408.55 -59.1076 2.89127 408.55
559 1 -60.8151 2.87035 410.443 -60.8151 2.87035 410.443
556 1 -62.3072 4.36114 408.996 -62.3072 4.36114 408.996
273 1 -58.255 0.688498 407.604 -58.255 0.688498 407.604
565 1 -56.7617 3.62354 409.051 -56.7617 3.62354 409.051
568 1 -55.2694 2.13226 410.501 -55.2694 2.13226 410.501
567 1 -55.908 1.41961 408.107 -55.908 1.41961 408.107
564 1 -57.6155 1.39971 409.998 -57.6155 1.39971 409.998
563 1 -58.4691 3.6032 410.944 -58.4691 3.6032 410.944
573 1 -52.0677 0.66045 410.059 -52.0677 0.66045 410.059
571 1 -53.5603 2.15057 408.611 -53.5603 2.15057 408.611
283 1 -52.7045 4.37208 407.667 -52.7045 4.37208 407.667
569 1 -54.4151 4.35539 409.555 -54.4151 4.35539 409.555
574 1 -51.2124 2.88333 409.116 -51.2124 2.88333 409.116
572 1 -52.9226 2.86498 411.004 -52.9226 2.86498 411.004
576 1 -50.357 0.678505 408.171 -50.357 0.678505 408.171
578 1 -48.8647 3.61665 409.619 -48.8647 3.61665 409.619
289 1 -49.5016 2.90244 407.228 -49.5016 2.90244 407.228
580 1 -48.0096 1.41253 408.675 -48.0096 1.41253 408.675
577 1 -49.7201 1.39338 410.563 -49.7201 1.39338 410.563
293 1 -47.1547 3.63636 407.73 -47.1547 3.63636 407.73
299 1 -43.9519 2.16454 407.286 -43.9519 2.16454 407.286
583 1 -45.6618 2.14533 409.176 -45.6618 2.14533 409.176
585 1 -44.8068 4.36878 408.232 -44.8068 4.36878 408.232
582 1 -46.517 4.34941 410.121 -46.517 4.34941 410.121
586 1 -44.1695 0.654294 410.623 -44.1695 0.654294 410.623
589 1 -42.4592 0.673509 408.733 -42.4592 0.673509 408.733
591 1 -40.9671 3.60981 410.18 -40.9671 3.60981 410.18
303 1 -41.6046 2.89656 407.788 -41.6046 2.89656 407.788
587 1 -43.3145 2.87755 409.678 -43.3145 2.87755 409.678