ITEM: TIMESTEP
0
ITEM: NUMBER OF ATOMS
4630
ITEM: BOX BOUNDS xy xz yz pp pp pp
-6.3276462904018672e+01 1.0629549475221867e+02 0.0000000000000000e+00
0.0000000000000000e+00 4.4274527100805940e+00 0.0000000000000000e+00
3.8000000000000000e+02 5.0000000000000000e+02 0.0000000000000000e+00
ITEM: ATOMS id type x y z xu yu zu
27 1 -45.5635 2.13729 399.507 -45.5635 2.13729 399.507
36 1 -39.9622 1.3956 399.564 -39.9622 1.3956 399.564
31 1 -43.1728 2.83133 399.946 -43.1728 2.83133 399.946
22 1 -48.7583 3.5832 399.915 -48.7583 3.5832 399.915
20 1 -49.6326 1.36157 400.762 -49.6326 1.36157 400.762
40 1 -37.5737 2.09105 400.006 -37.5737 2.09105 400.006
34 1 -40.814 3.59401 400.401 -40.814 3.59401 400.401
17 1 -51.9955 0.610446 400.314 -51.9955 0.610446 400.314
9 1 -57.561 1.30051 400.226 -57.561 1.30051 400.226
43 1 -35.2159 2.8545 400.463 -35.2159 2.8545 400.463
12 1 -55.23 2.11306 400.71 -55.23 2.11306 400.71
5 1 -59.9433 0.628785 399.764 -59.9433 0.628785 399.764
29 1 -44.0334 0.60262 400.802 -44.0334 0.60262 400.802
853 1 -56.9921 2.74448 414.905 -56.9921 2.74448 414.905
873 1 -45.8005 1.26862 415.031 -45.8005 1.26862 415.031
865 1 -49.8942 0.522292 416.408 -49.8942 0.522292 416.408
1174 1 -37.1978 1.98627 417.973 -37.1978 1.98627 417.973
883 1 -40.2036 0.529356 415.093 -40.2036 0.529356 415.093
863 1 -51.3976 2.00755 414.967 -51.3976 2.00755 414.967
315 1 -35.4402 1.3391 403.758 -35.4402 1.3391 403.758
307 1 -40.3957 2.80161 406.076 -40.3957 2.80161 406.076
1150 1 -51.62 0.509637 418.287 -51.62 0.509637 418.287
855 1 -55.4891 1.25952 416.345 -55.4891 1.25952 416.345
310 1 -38.6687 2.81473 404.202 -38.6687 2.81473 404.202
871 1 -46.6641 3.47645 415.97 -46.6641 3.47645 415.97
16 1 -52.8542 2.80891 401.171 -52.8542 2.80891 401.171
309 1 -38.8917 1.31628 407.514 -38.8917 1.31628 407.514
1156 1 -48.3908 3.46438 417.848 -48.3908 3.46438 417.848
867 1 -49.0309 2.74213 415.469 -49.0309 2.74213 415.469
1159 1 -46.0242 4.1988 418.349 -46.0242 4.1988 418.349
1168 1 -40.4277 3.45968 418.412 -40.4277 3.45968 418.412
1170 1 -39.5642 1.25187 417.472 -39.5642 1.25187 417.472
594 1 -39.7553 3.52402 408.455 -39.7553 3.52402 408.455
37 1 -39.3075 2.09157 401.846 -39.3075 2.09157 401.846
851 1 -57.8545 0.524142 415.845 -57.8545 0.524142 415.845
857 1 -54.6265 3.47983 415.405 -54.6265 3.47983 415.405
592 1 -40.6187 1.30431 409.394 -40.6187 1.30431 409.394
849 1 -58.7171 2.7313 416.785 -58.7171 2.7313 416.785
877 1 -43.4337 2.00286 415.531 -43.4337 2.00286 415.531
1143 1 -56.3516 3.46667 417.286 -56.3516 3.46667 417.286
1140 1 -58.0767 3.45355 419.166 -58.0767 3.45355 419.166
845 1 -61.0825 1.996 416.285 -61.0825 1.996 416.285
875 1 -44.2973 4.2107 416.471 -44.2973 4.2107 416.471
886 1 -38.4765 0.541262 413.214 -38.4765 0.541262 413.214
891 1 -35.2466 3.49535 412.775 -35.2466 3.49535 412.775
39 1 -37.8095 0.600781 403.25 -37.8095 0.600781 403.25
1177 1 -35.695 0.501034 419.414 -35.695 0.501034 419.414
1167 1 -41.2912 1.24003 419.351 -41.2912 1.24003 419.351
8 1 -58.4356 3.55639 401.185 -58.4356 3.55639 401.185
869 1 -47.5275 1.25675 416.909 -47.5275 1.25675 416.909
1136 1 -60.4422 2.71825 418.666 -60.4422 2.71825 418.666
1162 1 -44.521 2.71342 419.79 -44.521 2.71342 419.79
15 1 -53.7221 0.608348 402.158 -53.7221 0.608348 402.158
280 1 -55.4522 0.594524 404.015 -55.4522 0.594524 404.015
277 1 -57.1899 0.593924 405.883 -57.1899 0.593924 405.883
273 1 -58.9158 0.580879 407.759 -58.9158 0.580879 407.759
560 1 -60.6387 0.565547 409.641 -60.6387 0.565547 409.641
557 1 -62.363 0.551683 411.523 -62.363 0.551683 411.523
26 1 -45.7637 0.612066 402.688 -45.7637 0.612066 402.688
294 1 -47.4945 0.601799 404.576 -47.4945 0.601799 404.576
291 1 -49.2219 0.585393 406.453 -49.2219 0.585393 406.453
576 1 -50.9491 0.572239 408.33 -50.9491 0.572239 408.33
573 1 -52.6778 0.561754 410.207 -52.6778 0.561754 410.207
570 1 -54.4045 0.550263 412.085 -54.4045 0.550263 412.085
854 1 -56.1297 0.537355 413.964 -56.1297 0.537355 413.964
305 1 -41.258 0.582213 407.015 -41.258 0.582213 407.015
589 1 -42.9853 0.570108 408.894 -42.9853 0.570108 408.894
586 1 -44.7125 0.557972 410.773 -44.7125 0.557972 410.773
872 1 -46.44 0.546084 412.651 -46.44 0.546084 412.651
599 1 -36.7494 0.553255 411.335 -36.7494 0.553255 411.335
1132 1 -62.8077 1.98307 418.165 -62.8077 1.98307 418.165
4 1 -60.2078 3.57824 402.986 -60.2078 3.57824 402.986
268 1 -61.9207 3.55003 404.871 -61.9207 3.55003 404.871
1152 1 -50.7572 2.72975 417.347 -50.7572 2.72975 417.347
19 1 -50.5067 3.55209 401.693 -50.5067 3.55209 401.693
286 1 -52.2243 3.54288 403.559 -52.2243 3.54288 403.559
282 1 -53.9507 3.53731 405.446 -53.9507 3.53731 405.446
279 1 -55.6842 3.53212 407.322 -55.6842 3.53212 407.322
565 1 -57.4114 3.52151 409.201 -57.4114 3.52151 409.201
563 1 -59.1356 3.50772 411.082 -59.1356 3.50772 411.082
846 1 -60.8602 3.49414 412.963 -60.8602 3.49414 412.963
32 1 -42.5356 3.5615 402.273 -42.5356 3.5615 402.273
300 1 -44.2651 3.55406 404.143 -44.2651 3.55406 404.143
297 1 -45.9928 3.54159 406.016 -45.9928 3.54159 406.016
293 1 -47.7191 3.52871 407.894 -47.7191 3.52871 407.894
578 1 -49.4464 3.5161 409.772 -49.4464 3.5161 409.772
575 1 -51.1744 3.50464 411.648 -51.1744 3.50464 411.648
860 1 -52.9011 3.49269 413.526 -52.9011 3.49269 413.526
591 1 -41.4824 3.51196 410.334 -41.4824 3.51196 410.334
588 1 -43.2095 3.50001 412.213 -43.2095 3.50001 412.213
874 1 -44.9368 3.4882 414.091 -44.9368 3.4882 414.091
10 1 -56.9499 2.06731 402.582 -56.9499 2.06731 402.582
274 1 -58.6985 2.08365 404.436 -58.6985 2.08365 404.436
271 1 -60.4194 2.06673 406.316 -60.4194 2.06673 406.316
558 1 -62.1411 2.05013 408.2 -62.1411 2.05013 408.2
24 1 -47.2864 2.0916 401.282 -47.2864 2.0916 401.282
21 1 -49.0045 2.08395 403.133 -49.0045 2.08395 403.133
288 1 -50.7233 2.0683 405.014 -50.7233 2.0683 405.014
285 1 -52.4508 2.05545 406.892 -52.4508 2.05545 406.892
571 1 -54.1811 2.04657 408.766 -54.1811 2.04657 408.766
568 1 -55.908 2.03561 410.643 -55.908 2.03561 410.643
852 1 -57.6327 2.02246 412.523 -57.6327 2.02246 412.523
848 1 -59.3574 2.00912 414.404 -59.3574 2.00912 414.404
306 1 -41.037 2.07839 403.696 -41.037 2.07839 403.696
302 1 -42.7621 2.06697 405.573 -42.7621 2.06697 405.573
299 1 -44.4886 2.05562 407.454 -44.4886 2.05562 407.454
583 1 -46.2156 2.0434 409.333 -46.2156 2.0434 409.333
581 1 -47.9432 2.03125 411.211 -47.9432 2.03125 411.211
866 1 -49.6709 2.01961 413.089 -49.6709 2.01961 413.089
880 1 -41.7065 2.01468 413.653 -41.7065 2.01468 413.653
312 1 -37.1656 1.32791 405.634 -37.1656 1.32791 405.634
2 1 -61.7243 0.642775 401.55 -61.7243 0.642775 401.55
13 1 -54.5799 2.81218 403.062 -54.5799 2.81218 403.062
278 1 -56.3196 2.80776 404.944 -56.3196 2.80776 404.944
275 1 -58.0534 2.80197 406.818 -58.0534 2.80197 406.818
562 1 -59.7767 2.78674 408.7 -59.7767 2.78674 408.7
559 1 -61.5006 2.77218 410.582 -61.5006 2.77218 410.582
1166 1 -42.1546 3.4478 420.291 -42.1546 3.4478 420.291
889 1 -36.1101 1.27565 413.715 -36.1101 1.27565 413.715
28 1 -44.904 2.83137 401.787 -44.904 2.83137 401.787
296 1 -46.6346 2.81961 403.638 -46.6346 2.81961 403.638
292 1 -48.3593 2.80731 405.514 -48.3593 2.80731 405.514
289 1 -50.0849 2.79257 407.393 -50.0849 2.79257 407.393
574 1 -51.8134 2.78088 409.27 -51.8134 2.78088 409.27
572 1 -53.5415 2.77005 411.146 -53.5415 2.77005 411.146
856 1 -55.2672 2.75766 413.024 -55.2672 2.75766 413.024
303 1 -42.1222 2.78956 407.954 -42.1222 2.78956 407.954
587 1 -43.849 2.77767 409.833 -43.849 2.77767 409.833
584 1 -45.5762 2.7657 411.712 -45.5762 2.7657 411.712
870 1 -47.3038 2.75395 413.59 -47.3038 2.75395 413.59
6 1 -59.3311 1.36284 402.06 -59.3311 1.36284 402.06
270 1 -61.0633 1.34923 403.924 -61.0633 1.34923 403.924
267 1 -62.7802 1.3278 405.816 -62.7802 1.3278 405.816
890 1 -35.4708 1.99814 416.095 -35.4708 1.99814 416.095
18 1 -51.3565 1.33625 402.64 -51.3565 1.33625 402.64
284 1 -53.0848 1.32919 404.515 -53.0848 1.32919 404.515
281 1 -54.8183 1.32161 406.388 -54.8183 1.32161 406.388
567 1 -56.5489 1.31413 408.262 -56.5489 1.31413 408.262
564 1 -58.2737 1.30099 410.142 -58.2737 1.30099 410.142
561 1 -59.9979 1.28714 412.023 -59.9979 1.28714 412.023
844 1 -61.7228 1.27381 413.904 -61.7228 1.27381 413.904
33 1 -41.6909 1.35181 401.335 -41.6909 1.35181 401.335
30 1 -43.4062 1.34003 403.19 -43.4062 1.34003 403.19
298 1 -45.1291 1.33375 405.073 -45.1291 1.33375 405.073
295 1 -46.8555 1.32168 406.955 -46.8555 1.32168 406.955
580 1 -48.5826 1.30835 408.833 -48.5826 1.30835 408.833
577 1 -50.3105 1.29649 410.71 -50.3105 1.29649 410.71
862 1 -52.038 1.28504 412.587 -52.038 1.28504 412.587
590 1 -42.3458 1.2923 411.273 -42.3458 1.2923 411.273
876 1 -44.0731 1.28037 413.152 -44.0731 1.28037 413.152
1163 1 -43.6577 0.505687 418.85 -43.6577 0.505687 418.85
1153 1 -50.1167 3.45184 419.728 -50.1167 3.45184 419.728
311 1 -38.0278 3.53653 406.576 -38.0278 3.53653 406.576
42 1 -36.0932 0.612075 401.396 -36.0932 0.612075 401.396
1135 1 -61.3048 0.498043 419.606 -61.3048 0.498043 419.606
1171 1 -38.9248 1.97441 419.852 -38.9248 1.97441 419.852
1139 1 -58.9393 1.23329 420.106 -58.9393 1.23329 420.106
601 1 -35.886 2.77294 410.396 -35.886 2.77294 410.396
313 1 -36.2988 3.54938 404.696 -36.2988 3.54938 404.696
858 1 -53.7639 1.2726 414.466 -53.7639 1.2726 414.466
868 1 -48.1675 0.534374 414.529 -48.1675 0.534374 414.529
1147 1 -53.9859 4.20199 417.786 -53.9859 4.20199 417.786
843 1 -62.5853 3.48102 414.844 -62.5853 3.48102 414.844
593 1 -39.9793 2.0266 411.774 -39.9793 2.0266 411.774
308 1 -39.5317 0.594059 405.133 -39.5317 0.594059 405.133
861 1 -52.2606 4.21497 415.907 -52.2606 4.21497 415.907
1158 1 -46.8875 1.979 419.289 -46.8875 1.979 419.289
884 1 -39.34 2.74903 414.153 -39.34 2.74903 414.153
881 1 -41.0671 2.73717 416.032 -41.0671 2.73717 416.032
885 1 -38.7007 3.47152 416.533 -38.7007 3.47152 416.533
859 1 -53.1233 1.99478 416.846 -53.1233 1.99478 416.846
596 1 -38.2524 2.03856 409.895 -38.2524 2.03856 409.895
879 1 -41.9307 0.517532 416.972 -41.9307 0.517532 416.972
1172 1 -38.0613 4.19406 418.913 -38.0613 4.19406 418.913
1154 1 -49.2538 1.24444 418.788 -49.2538 1.24444 418.788
887 1 -37.8371 1.26373 415.594 -37.8371 1.26373 415.594
597 1 -37.6129 2.76096 412.275 -37.6129 2.76096 412.275
1161 1 -45.1608 1.99106 417.41 -45.1608 1.99106 417.41
1138 1 -59.5796 0.511031 417.725 -59.5796 0.511031 417.725
1149 1 -52.4828 2.7169 419.227 -52.4828 2.7169 419.227
41 1 -36.9386 2.82187 402.334 -36.9386 2.82187 402.334
888 1 -36.9736 3.48341 414.654 -36.9736 3.48341 414.654
1165 1 -42.7942 2.72535 417.911 -42.7942 2.72535 417.911
1141 1 -57.2141 1.24637 418.226 -57.2141 1.24637 418.226
1145 1 -54.8485 1.9817 418.726 -54.8485 1.9817 418.726
600 1 -36.5257 2.0505 408.016 -36.5257 2.0505 408.016
1148 1 -53.3454 0.496662 420.167 -53.3454 0.496662 420.167
882 1 -40.8429 4.23434 412.713 -40.8429 4.23434 412.713
1157 1 -47.7505 4.18655 420.228 -47.7505 4.18655 420.228
1144 1 -55.7111 4.18887 419.666 -55.7111 4.18887 419.666
602 1 -35.0224 0.565315 409.456 -35.0224 0.565315 409.456
1131 1 -63.03 0.485143 421.486 -63.03 0.485143 421.486
1755 1 -35.5035 2.6568 428.432 -35.5035 2.6568 428.432
1460 1 -40.0119 2.68493 424.111 -40.0119 2.68493 424.111
2308 1 -49.7249 3.33163 437.77 -49.7249 3.33163 437.77
2316 1 -44.772 1.87212 435.45 -44.772 1.87212 435.45
2312 1 -47.3595 4.06668 438.27 -47.3595 4.06668 438.27
1464 1 -37.6458 3.41945 424.612 -37.6458 3.41945 424.612
1461 1 -39.1487 0.477229 423.171 -39.1487 0.477229 423.171
2039 1 -38.3157 3.35459 434.571 -38.3157 3.35459 434.571
2613 1 -40.2635 1.84423 439.771 -40.2635 1.84423 439.771
1467 1 -35.2798 4.15399 425.113 -35.2798 4.15399 425.113
2603 1 -45.8566 2.58158 439.711 -45.8566 2.58158 439.711
1443 1 -49.4764 4.17393 422.108 -49.4764 4.17393 422.108
1748 1 -39.3722 3.40735 426.491 -39.3722 3.40735 426.491
2023 1 -47.1374 1.13713 434.95 -47.1374 1.13713 434.95
2310 1 -48.2219 1.84655 439.21 -48.2219 1.84655 439.21
1151 1 -50.9795 1.23172 420.667 -50.9795 1.23172 420.667
2303 1 -52.9527 0.376364 438.21 -52.9527 0.376364 438.21
2299 1 -55.3182 4.06866 437.71 -55.3182 4.06866 437.71
2033 1 -41.5439 0.399683 435.01 -41.5439 0.399683 435.01
1433 1 -55.0707 0.483604 422.047 -55.0707 0.483604 422.047
1430 1 -56.7959 0.470557 423.927 -56.7959 0.470557 423.927
1426 1 -58.521 0.457539 425.807 -58.521 0.457539 425.807
1713 1 -60.2461 0.444553 427.688 -60.2461 0.444553 427.688
1710 1 -61.9712 0.431595 429.568 -61.9712 0.431595 429.568
2330 1 -36.173 2.59187 438.392 -36.173 2.59187 438.392
1160 1 -45.3842 0.493623 420.729 -45.3842 0.493623 420.729
1447 1 -47.1103 0.481234 422.608 -47.1103 0.481234 422.608
1444 1 -48.836 0.468574 424.488 -48.836 0.468574 424.488
1730 1 -50.5615 0.455748 426.368 -50.5615 0.455748 426.368
1727 1 -52.2867 0.442839 428.248 -52.2867 0.442839 428.248
1724 1 -54.0119 0.42989 430.128 -54.0119 0.42989 430.128
2008 1 -55.7369 0.416926 432.008 -55.7369 0.416926 432.008
2006 1 -57.4619 0.403961 433.889 -57.4619 0.403961 433.889
1458 1 -40.8751 0.465138 425.05 -40.8751 0.465138 425.05
1743 1 -42.6012 0.452839 426.93 -42.6012 0.452839 426.93
1740 1 -44.327 0.440341 428.809 -44.327 0.440341 428.809
2026 1 -46.0525 0.427688 430.689 -46.0525 0.427688 430.689
2022 1 -47.7778 0.414929 432.569 -47.7778 0.414929 432.569
2019 1 -49.5029 0.402103 434.449 -49.5029 0.402103 434.449
2309 1 -48.8624 1.12432 436.83 -48.8624 1.12432 436.83
1137 1 -59.8018 3.44051 421.046 -59.8018 3.44051 421.046
1421 1 -61.527 3.42755 422.927 -61.527 3.42755 422.927
1439 1 -51.8423 3.43899 421.607 -51.8423 3.43899 421.607
1435 1 -53.5676 3.426 423.487 -53.5676 3.426 423.487
1432 1 -55.2928 3.41299 425.367 -55.2928 3.41299 425.367
1719 1 -57.018 3.39998 427.248 -57.018 3.39998 427.248
1716 1 -58.7431 3.38698 429.128 -58.7431 3.38698 429.128
2001 1 -60.4681 3.37401 431.008 -60.4681 3.37401 431.008
1998 1 -62.1931 3.36105 432.889 -62.1931 3.36105 432.889
2323 1 -40.0411 3.34201 436.451 -40.0411 3.34201 436.451
1453 1 -43.8811 3.43573 422.17 -43.8811 3.43573 422.17
1450 1 -45.6072 3.42338 424.049 -45.6072 3.42338 424.049
1446 1 -47.333 3.41079 425.928 -47.333 3.41079 425.928
1732 1 -49.0584 3.39803 427.808 -49.0584 3.39803 427.808
1729 1 -50.7837 3.38518 429.688 -50.7837 3.38518 429.688
2014 1 -52.5089 3.37227 431.569 -52.5089 3.37227 431.569
2011 1 -54.2339 3.35934 433.449 -54.2339 3.35934 433.449
1745 1 -41.0983 3.39506 428.37 -41.0983 3.39506 428.37
1742 1 -42.8241 3.38259 430.25 -42.8241 3.38259 430.25
2028 1 -44.5496 3.36998 432.13 -44.5496 3.36998 432.13
2025 1 -46.2749 3.35725 434.01 -46.2749 3.35725 434.01
1427 1 -58.2989 1.95554 422.487 -58.2989 1.95554 422.487
1424 1 -60.024 1.94254 424.367 -60.024 1.94254 424.367
1711 1 -61.7492 1.92959 426.247 -61.7492 1.92959 426.247
2322 1 -40.9037 1.12196 437.391 -40.9037 1.12196 437.391
1750 1 -37.8694 1.92215 427.931 -37.8694 1.92215 427.931
1155 1 -48.6135 1.96655 421.168 -48.6135 1.96655 421.168
1441 1 -50.3391 1.9538 423.048 -50.3391 1.9538 423.048
1438 1 -52.0645 1.94089 424.928 -52.0645 1.94089 424.928
1725 1 -53.7898 1.92793 426.808 -53.7898 1.92793 426.808
1722 1 -55.5149 1.91494 428.688 -55.5149 1.91494 428.688
1718 1 -57.24 1.90196 430.568 -57.24 1.90196 430.568
2003 1 -58.965 1.88898 432.448 -58.965 1.88898 432.448
2000 1 -60.6899 1.87602 434.329 -60.6899 1.87602 434.329
1459 1 -40.6516 1.9625 421.731 -40.6516 1.9625 421.731
1455 1 -42.3781 1.95041 423.61 -42.3781 1.95041 423.61
1452 1 -44.1042 1.9381 425.489 -44.1042 1.9381 425.489
1737 1 -45.8299 1.92556 427.369 -45.8299 1.92556 427.369
1735 1 -47.5554 1.91286 429.249 -47.5554 1.91286 429.249
2020 1 -49.2807 1.90006 431.129 -49.2807 1.90006 431.129
2017 1 -51.0059 1.88719 433.009 -51.0059 1.88719 433.009
2034 1 -41.3212 1.89742 431.69 -41.3212 1.89742 431.69
2031 1 -43.0467 1.88482 433.57 -43.0467 1.88482 433.57
2029 1 -43.9094 4.09221 434.51 -43.9094 4.09221 434.51
1146 1 -54.2081 2.70386 421.107 -54.2081 2.70386 421.107
1431 1 -55.9333 2.6908 422.987 -55.9333 2.6908 422.987
1428 1 -57.6584 2.67777 424.867 -57.6584 2.67777 424.867
1715 1 -59.3836 2.66477 426.747 -59.3836 2.66477 426.747
1712 1 -61.1087 2.6518 428.628 -61.1087 2.6518 428.628
1708 1 -62.8337 2.63885 430.508 -62.8337 2.63885 430.508
1747 1 -39.5955 1.90987 429.811 -39.5955 1.90987 429.811
1449 1 -46.2473 2.7012 421.669 -46.2473 2.7012 421.669
1445 1 -47.9732 2.68866 423.548 -47.9732 2.68866 423.548
1442 1 -49.6988 2.6759 425.428 -49.6988 2.6759 425.428
1728 1 -51.4241 2.66303 427.308 -51.4241 2.66303 427.308
1726 1 -53.1493 2.65009 429.188 -53.1493 2.65009 429.188
2010 1 -54.8744 2.63714 431.068 -54.8744 2.63714 431.068
2007 1 -56.5994 2.62417 432.949 -56.5994 2.62417 432.949
1456 1 -41.7382 2.67274 425.99 -41.7382 2.67274 425.99
1741 1 -43.4641 2.66034 427.869 -43.4641 2.66034 427.869
1738 1 -45.1898 2.64776 429.749 -45.1898 2.64776 429.749
2024 1 -46.9152 2.63505 431.629 -46.9152 2.63505 431.629
2021 1 -48.6404 2.62225 433.509 -48.6404 2.62225 433.509
2035 1 -40.6812 2.61972 434.071 -40.6812 2.61972 434.071
1754 1 -36.1431 1.93426 426.052 -36.1431 1.93426 426.052
1423 1 -60.6644 1.2203 421.986 -60.6644 1.2203 421.986
1420 1 -62.3896 1.20737 423.867 -62.3896 1.20737 423.867
2044 1 -35.0873 1.88195 434.132 -35.0873 1.88195 434.132
1437 1 -52.705 1.21878 422.547 -52.705 1.21878 422.547
1434 1 -54.4302 1.20577 424.427 -54.4302 1.20577 424.427
1721 1 -56.1554 1.19275 426.307 -56.1554 1.19275 426.307
1717 1 -57.8805 1.17975 428.188 -57.8805 1.17975 428.188
1714 1 -59.6056 1.16676 430.068 -59.6056 1.16676 430.068
1999 1 -61.3306 1.1538 431.948 -61.3306 1.1538 431.948
1997 1 -63.0556 1.14086 433.829 -63.0556 1.14086 433.829
1164 1 -43.0179 1.22807 421.23 -43.0179 1.22807 421.23
1451 1 -44.7442 1.21586 423.109 -44.7442 1.21586 423.109
1448 1 -46.4701 1.20339 424.989 -46.4701 1.20339 424.989
1734 1 -48.1957 1.1907 426.868 -48.1957 1.1907 426.868
1731 1 -49.9211 1.17789 428.748 -49.9211 1.17789 428.748
2016 1 -51.6463 1.16501 430.628 -51.6463 1.16501 430.628
2012 1 -53.3714 1.15208 432.509 -53.3714 1.15208 432.509
2009 1 -55.0964 1.13914 434.389 -55.0964 1.13914 434.389
1746 1 -40.2353 1.18751 427.43 -40.2353 1.18751 427.43
1744 1 -41.9612 1.17512 429.31 -41.9612 1.17512 429.31
2030 1 -43.6869 1.16257 431.19 -43.6869 1.16257 431.19
2027 1 -45.4122 1.1499 433.069 -45.4122 1.1499 433.069
2325 1 -39.1784 1.13459 435.511 -39.1784 1.13459 435.511
1749 1 -38.7325 4.12976 428.871 -38.7325 4.12976 428.871
1425 1 -59.1615 4.16276 423.427 -59.1615 4.16276 423.427
1736 1 -46.6927 4.13295 428.309 -46.6927 4.13295 428.309
1142 1 -56.5737 1.9686 420.606 -56.5737 1.9686 420.606
1720 1 -56.3775 4.12218 429.628 -56.3775 4.12218 429.628
2005 1 -58.1025 4.10919 431.508 -58.1025 4.10919 431.508
2002 1 -59.8275 4.09622 433.389 -59.8275 4.09622 433.389
1169 1 -39.7882 4.18219 420.791 -39.7882 4.18219 420.791
1723 1 -54.6524 4.13516 427.748 -54.6524 4.13516 427.748
1440 1 -51.2019 4.16108 423.988 -51.2019 4.16108 423.988
1733 1 -48.4181 4.1202 430.189 -48.4181 4.1202 430.189
2018 1 -50.1433 4.10736 432.069 -50.1433 4.10736 432.069
2015 1 -51.8684 4.09447 433.949 -51.8684 4.09447 433.949
2036 1 -40.4584 4.11739 430.75 -40.4584 4.11739 430.75
2032 1 -42.184 4.10486 432.63 -42.184 4.10486 432.63
2326 1 -38.5384 1.85691 437.891 -38.5384 1.85691 437.891
1752 1 -37.0063 4.14195 426.992 -37.0063 4.14195 426.992
1457 1 -41.5149 4.17021 422.67 -41.5149 4.17021 422.67
2043 1 -35.727 1.15948 431.752 -35.727 1.15948 431.752
2286 1 -62.4148 1.86308 436.209 -62.4148 1.86308 436.209
2319 1 -42.6288 1.10924 439.271 -42.6288 1.10924 439.271
1436 1 -52.9272 4.14814 425.868 -52.9272 4.14814 425.868
1422 1 -60.8866 4.14979 425.307 -60.8866 4.14979 425.307
1173 1 -37.422 0.489166 421.292 -37.422 0.489166 421.292
2293 1 -58.546 1.11327 438.15 -58.546 1.11327 438.15
2289 1 -60.9116 0.378066 437.649 -60.9116 0.378066 437.649
2295 1 -57.0429 4.05575 439.59 -57.0429 4.05575 439.59
1465 1 -36.7825 1.21172 423.672 -36.7825 1.21172 423.672
2315 1 -44.9941 0.374245 438.77 -44.9941 0.374245 438.77
2331 1 -35.9502 4.08946 435.072 -35.9502 4.08946 435.072
2297 1 -56.1805 1.84848 438.65 -56.1805 1.84848 438.65
2324 1 -39.401 4.06431 438.831 -39.401 4.06431 438.831
2306 1 -50.5873 1.11148 438.71 -50.5873 1.11148 438.71
2285 1 -62.6364 0.36515 439.53 -62.6364 0.36515 439.53
1462 1 -38.5091 1.1997 425.551 -38.5091 1.1997 425.551
1751 1 -37.2297 2.6446 430.311 -37.2297 2.6446 430.311
2329 1 -36.813 1.86949 436.012 -36.813 1.86949 436.012
2042 1 -36.59 3.36704 432.692 -36.59 3.36704 432.692
2041 1 -37.4529 1.14711 433.631 -37.4529 1.14711 433.631
2593 1 -51.4497 3.31878 439.65 -51.4497 3.31878 439.65
2328 1 -37.0357 0.371832 439.332 -37.0357 0.371832 439.332
2301 1 -53.8151 2.58365 439.15 -53.8151 2.58365 439.15
1466 1 -35.9192 3.43141 422.733 -35.9192 3.43141 422.733
2298 1 -55.9588 3.3464 435.329 -55.9588 3.3464 435.329
2321 1 -41.7663 3.32934 438.331 -41.7663 3.32934 438.331
2313 1 -46.497 1.85935 437.33 -46.497 1.85935 437.33
2294 1 -57.6837 3.33346 437.209 -57.6837 3.33346 437.209
2304 1 -52.0903 2.59653 437.27 -52.0903 2.59653 437.27
2300 1 -54.4558 1.86138 436.769 -54.4558 1.86138 436.769
2290 1 -60.0492 2.59826 436.709 -60.0492 2.59826 436.709
2318 1 -43.2691 0.386998 436.89 -43.2691 0.386998 436.89
2327 1 -37.6757 4.07694 436.952 -37.6757 4.07694 436.952
2004 1 -58.3244 2.61121 434.829 -58.3244 2.61121 434.829
2013 1 -52.7309 1.8743 434.889 -52.7309 1.8743 434.889
2288 1 -61.5524 4.08327 435.269 -61.5524 4.08327 435.269
2037 1 -39.8184 0.412265 433.131 -39.8184 0.412265 433.131
1739 1 -44.9671 4.14558 426.429 -44.9671 4.14558 426.429
1753 1 -36.3667 0.436993 429.372 -36.3667 0.436993 429.372
2307 1 -50.3654 2.6094 435.389 -50.3654 2.6094 435.389
2314 1 -45.6345 4.07947 436.39 -45.6345 4.07947 436.39
2040 1 -38.0927 0.42471 431.251 -38.0927 0.42471 431.251
2320 1 -42.4065 2.60708 435.95 -42.4065 2.60708 435.95
2292 1 -59.1868 0.391005 435.769 -59.1868 0.391005 435.769
2311 1 -47.9999 3.34446 435.89 -47.9999 3.34446 435.89
2302 1 -53.5933 4.08157 435.829 -53.5933 4.08157 435.829
2296 1 -56.8212 1.1262 436.269 -56.8212 1.1262 436.269
1463 1 -38.2854 2.69694 422.232 -38.2854 2.69694 422.232
2287 1 -61.774 2.58533 438.59 -61.774 2.58533 438.59
2291 1 -59.4084 3.32054 439.09 -59.4084 3.32054 439.09
2317 1 -44.1316 2.59435 437.83 -44.1316 2.59435 437.83
2038 1 -38.9556 2.63223 432.191 -38.9556 2.63223 432.191
2305 1 -51.2279 0.389241 436.329 -51.2279 0.389241 436.329
2332 1 -35.3103 0.384426 437.452 -35.3103 0.384426 437.452
1709 1 -62.6118 4.13685 427.188 -62.6118 4.13685 427.188
1468 1 -35.0557 1.22362 421.794 -35.0557 1.22362 421.794
1454 1 -43.2412 4.15801 424.55 -43.2412 4.15801 424.55
1429 1 -57.4363 4.17579 421.546 -57.4363 4.17579 421.546
1133 1 -62.1674 2.70531 420.546 -62.1674 2.70531 420.546
1175 1 -36.5585 2.70883 420.353 -36.5585 2.70883 420.353
2616 1 -38.1205 1.08142 443.593 -38.1205 1.08142 443.593
2901 1 -39.8452 1.06864 445.473 -39.8452 1.06864 445.473
2907 1 -36.6178 4.0238 445.033 -36.6178 4.0238 445.033
3194 1 -37.7018 0.305789 449.294 -37.7018 0.305789 449.294
2587 1 -54.6774 0.36349 440.09 -54.6774 0.36349 440.09
2597 1 -49.0843 4.05386 440.15 -49.0843 4.05386 440.15
2584 1 -56.4021 0.350633 441.97 -56.4021 0.350633 441.97
2581 1 -58.1267 0.3378 443.851 -58.1267 0.3378 443.851
2868 1 -59.8512 0.324993 445.731 -59.8512 0.324993 445.731
2865 1 -61.5756 0.312208 447.611 -61.5756 0.312208 447.611
2601 1 -46.719 0.361454 440.651 -46.719 0.361454 440.651
2598 1 -48.4437 0.348651 442.531 -48.4437 0.348651 442.531
2885 1 -50.1683 0.335863 444.411 -50.1683 0.335863 444.411
2882 1 -51.8928 0.323117 446.292 -51.8928 0.323117 446.292
2879 1 -53.6172 0.310434 448.172 -53.6172 0.310434 448.172
2612 1 -40.4856 0.346394 443.092 -40.4856 0.346394 443.092
2898 1 -42.2103 0.33361 444.972 -42.2103 0.33361 444.972
2895 1 -43.9348 0.32082 446.852 -43.9348 0.32082 446.852
3180 1 -45.6591 0.308052 448.733 -45.6591 0.308052 448.733
2576 1 -61.1331 3.30763 440.97 -61.1331 3.30763 440.97
2574 1 -62.8577 3.29475 442.85 -62.8577 3.29475 442.85
2589 1 -53.1744 3.30594 441.53 -53.1744 3.30594 441.53
2586 1 -54.899 3.29313 443.411 -54.899 3.29313 443.411
2874 1 -56.6235 3.28035 445.291 -56.6235 3.28035 445.291
2871 1 -58.3479 3.26761 447.171 -58.3479 3.26761 447.171
3155 1 -60.0723 3.25491 449.052 -60.0723 3.25491 449.052
2607 1 -43.4913 3.31659 440.211 -43.4913 3.31659 440.211
2604 1 -45.2161 3.30381 442.091 -45.2161 3.30381 442.091
2600 1 -46.9407 3.29101 443.971 -46.9407 3.29101 443.971
2887 1 -48.6652 3.27823 445.852 -48.6652 3.27823 445.852
2884 1 -50.3896 3.2655 447.732 -50.3896 3.2655 447.732
3168 1 -52.114 3.25283 449.613 -52.114 3.25283 449.613
2900 1 -40.7074 3.27597 446.413 -40.7074 3.27597 446.413
2897 1 -42.4318 3.26318 448.293 -42.4318 3.26318 448.293
2582 1 -57.9052 1.83558 440.53 -57.9052 1.83558 440.53
2579 1 -59.6299 1.8227 442.41 -59.6299 1.8227 442.41
2866 1 -61.3544 1.80985 444.291 -61.3544 1.80985 444.291
2578 1 -60.2708 1.10036 440.03 -60.2708 1.10036 440.03
2595 1 -49.9467 1.83373 441.091 -49.9467 1.83373 441.091
2592 1 -51.6713 1.82092 442.971 -51.6713 1.82092 442.971
2880 1 -53.3959 1.80815 444.851 -53.3959 1.80815 444.851
2877 1 -55.1203 1.79542 446.732 -55.1203 1.79542 446.732
2873 1 -56.8447 1.78276 448.612 -56.8447 1.78276 448.612
2609 1 -41.9884 1.83149 441.651 -41.9884 1.83149 441.651
2606 1 -43.7132 1.81871 443.532 -43.7132 1.81871 443.532
2892 1 -45.4377 1.80591 445.412 -45.4377 1.80591 445.412
2890 1 -47.1622 1.79314 447.292 -47.1622 1.79314 447.292
3174 1 -48.8865 1.78041 449.173 -48.8865 1.78041 449.173
2618 1 -37.2581 3.30152 442.653 -37.2581 3.30152 442.653
2585 1 -55.5398 2.57079 441.03 -55.5398 2.57079 441.03
2583 1 -57.2644 2.55794 442.911 -57.2644 2.55794 442.911
2870 1 -58.9889 2.54512 444.791 -58.9889 2.54512 444.791
2867 1 -60.7134 2.53232 446.671 -60.7134 2.53232 446.671
2863 1 -62.4378 2.51955 448.551 -62.4378 2.51955 448.551
2599 1 -47.5814 2.56878 441.591 -47.5814 2.56878 441.591
2596 1 -49.306 2.55598 443.471 -49.306 2.55598 443.471
2883 1 -51.0305 2.54321 445.352 -51.0305 2.54321 445.352
2881 1 -52.755 2.53049 447.232 -52.755 2.53049 447.232
3164 1 -54.4793 2.51785 449.112 -54.4793 2.51785 449.112
2610 1 -41.348 2.55373 444.032 -41.348 2.55373 444.032
2896 1 -43.0726 2.54094 445.912 -43.0726 2.54094 445.912
2893 1 -44.797 2.52816 447.793 -44.797 2.52816 447.793
3178 1 -46.5212 2.51541 449.673 -46.5212 2.51541 449.673
2575 1 -61.9954 1.08746 441.91 -61.9954 1.08746 441.91
2591 1 -52.312 1.09863 440.59 -52.312 1.09863 440.59
2588 1 -54.0367 1.08581 442.471 -54.0367 1.08581 442.471
2876 1 -55.7612 1.07301 444.351 -55.7612 1.07301 444.351
2872 1 -57.4857 1.06025 446.231 -57.4857 1.06025 446.231
2869 1 -59.2101 1.04753 448.112 -59.2101 1.04753 448.112
2605 1 -44.3537 1.09648 441.151 -44.3537 1.09648 441.151
2602 1 -46.0784 1.08368 443.031 -46.0784 1.08368 443.031
2889 1 -47.803 1.07089 444.912 -47.803 1.07089 444.912
2886 1 -49.5274 1.05813 446.792 -49.5274 1.05813 446.792
3170 1 -51.2518 1.04543 448.672 -51.2518 1.04543 448.672
2899 1 -41.5697 1.05585 447.353 -41.5697 1.05585 447.353
3184 1 -43.294 1.04307 449.233 -43.294 1.04307 449.233
2580 1 -58.7676 4.04287 441.47 -58.7676 4.04287 441.47
2577 1 -60.4922 4.03 443.35 -60.4922 4.03 443.35
2864 1 -62.2167 4.01716 445.231 -62.2167 4.01716 445.231
2862 1 -63.0789 1.79702 446.171 -63.0789 1.79702 446.171
2594 1 -50.809 4.04105 442.031 -50.809 4.04105 442.031
2590 1 -52.5336 4.02825 443.911 -52.5336 4.02825 443.911
2878 1 -54.2581 4.0155 445.791 -54.2581 4.0155 445.791
2875 1 -55.9825 4.00281 447.672 -55.9825 4.00281 447.672
3159 1 -57.7069 3.99018 449.552 -57.7069 3.99018 449.552
2611 1 -41.126 4.05159 440.711 -41.126 4.05159 440.711
2608 1 -42.8508 4.03883 442.592 -42.8508 4.03883 442.592
2894 1 -44.5755 4.02604 444.472 -44.5755 4.02604 444.472
2891 1 -46.3 4.01325 446.352 -46.3 4.01325 446.352
2888 1 -48.0243 4.00049 448.232 -48.0243 4.00049 448.232
2904 1 -38.3424 4.01101 446.913 -38.3424 4.01101 446.913
2621 1 -35.5331 3.31423 440.773 -35.5331 3.31423 440.773
2617 1 -37.8983 2.57922 440.272 -37.8983 2.57922 440.272
2614 1 -39.6232 2.5665 442.152 -39.6232 2.5665 442.152
2908 1 -35.9775 0.318613 447.414 -35.9775 0.318613 447.414
2619 1 -36.3956 1.09416 441.713 -36.3956 1.09416 441.713
2906 1 -36.8397 2.52593 448.354 -36.8397 2.52593 448.354
2905 1 -37.4801 1.80368 445.973 -37.4801 1.80368 445.973
2620 1 -35.7554 1.81646 444.093 -35.7554 1.81646 444.093
3190 1 -40.0668 3.99821 448.793 -40.0668 3.99821 448.793
2902 1 -39.2046 1.79088 447.853 -39.2046 1.79088 447.853
2903 1 -38.9829 3.28876 444.533 -38.9829 3.28876 444.533
2615 1 -38.7608 0.359145 441.212 -38.7608 0.359145 441.212
2909 1 -35.1152 2.53875 446.474 -35.1152 2.53875 446.474
14 1 -54.383 4.34278 399.873 -54.383 4.34278 399.873
7 1 -59.0392 2.84433 398.966 -59.0392 2.84433 398.966
25 1 -46.4111 4.33546 400.347 -46.4111 4.33546 400.347
38 1 -38.4353 4.28953 400.861 -38.4353 4.28953 400.861
23 1 -48.1383 4.30628 402.219 -48.1383 4.30628 402.219
287 1 -51.5872 4.27347 405.949 -51.5872 4.27347 405.949
878 1 -42.5701 4.22247 414.592 -42.5701 4.22247 414.592
579 1 -48.8071 4.23918 412.15 -48.8071 4.23918 412.15
585 1 -45.3521 4.26334 408.394 -45.3521 4.26334 408.394
290 1 -49.8644 4.28701 404.072 -49.8644 4.28701 404.072
11 1 -56.0915 4.28968 401.661 -56.0915 4.28968 401.661
595 1 -39.1158 4.24631 410.834 -39.1158 4.24631 410.834
1134 1 -61.9451 4.20324 417.225 -61.9451 4.20324 417.225
283 1 -53.3161 4.26428 407.827 -53.3161 4.26428 407.827
582 1 -47.0794 4.251 410.273 -47.0794 4.251 410.273
276 1 -57.8299 4.29671 403.518 -57.8299 4.29671 403.518
569 1 -55.045 4.25512 409.703 -55.045 4.25512 409.703
847 1 -60.2199 4.21625 415.344 -60.2199 4.21625 415.344
556 1 -63.0033 4.2569 409.142 -63.0033 4.2569 409.142
272 1 -59.5616 4.29021 405.376 -59.5616 4.29021 405.376
3 1 -60.8611 2.85483 400.651 -60.8611 2.85483 400.651
35 1 -40.1663 4.30001 402.746 -40.1663 4.30001 402.746
598 1 -37.3888 4.25842 408.956 -37.3888 4.25842 408.956
850 1 -58.495 4.22948 413.464 -58.495 4.22948 413.464
304 1 -41.8952 4.28852 404.636 -41.8952 4.28852 404.636