ITEM: TIMESTEP
0
ITEM: NUMBER OF ATOMS
4630
ITEM: BOX BOUNDS xy xz yz pp pp pp
-6.3520091393197966e+01 1.0653912324139796e+02 0.0000000000000000e+00
0.0000000000000000e+00 4.4274527100805940e+00 0.0000000000000000e+00
3.8000000000000000e+02 5.0000000000000000e+02 0.0000000000000000e+00
ITEM: ATOMS id type x y z xu yu zu
7 1 -59.2609 2.794 399.033 -59.2609 2.794 399.033
27 1 -45.7436 2.08857 399.578 -45.7436 2.08857 399.578
36 1 -40.1277 1.34724 399.636 -40.1277 1.34724 399.636
45 1 -34.5149 0.608043 399.698 -34.5149 0.608043 399.698
85 1 -8.83379 0.612195 399.524 -8.83379 0.612195 399.524
94 1 -3.21792 4.29877 399.584 -3.21792 4.29877 399.584
103 1 2.39373 3.5602 399.648 2.39373 3.5602 399.648
112 1 8.00433 2.82205 399.712 8.00433 2.82205 399.712
152 1 33.6731 2.8274 399.539 33.6731 2.8274 399.539
161 1 39.2872 2.08585 399.597 39.2872 2.08585 399.597
170 1 44.8976 1.34643 399.658 44.8976 1.34643 399.658
227 1 81.7876 4.30023 399.591 81.7876 4.30023 399.591
236 1 87.4022 3.55897 399.646 87.4022 3.55897 399.646
245 1 93.0129 2.81962 399.706 93.0129 2.81962 399.706
5 1 -60.1634 0.579178 399.831 -60.1634 0.579178 399.831
2 1 -61.9539 0.594147 401.611 -61.9539 0.594147 401.611
3 1 -61.0833 2.8058 400.717 -61.0833 2.8058 400.717
1 1 -62.8049 2.78011 402.553 107.254 2.78011 402.553
4 1 -60.4337 3.53363 403.046 -60.4337 3.53363 403.046
9 1 -57.7783 1.2547 400.294 -57.7783 1.2547 400.294
8 1 -58.654 3.50991 401.251 -58.654 3.50991 401.251
10 1 -57.1652 2.02194 402.646 -57.1652 2.02194 402.646
6 1 -59.5532 1.31677 402.124 -59.5532 1.31677 402.124
11 1 -56.3042 4.24295 401.724 -56.3042 4.24295 401.724
12 1 -55.4399 2.06498 400.776 -55.4399 2.06498 400.776
16 1 -53.0584 2.7619 401.238 -53.0584 2.7619 401.238
15 1 -53.9286 0.56319 402.223 -53.9286 0.56319 402.223
14 1 -54.5867 4.29485 399.942 -54.5867 4.29485 399.942
17 1 -52.1966 0.563531 400.383 -52.1966 0.563531 400.383
13 1 -54.7894 2.76814 403.124 -54.7894 2.76814 403.124
22 1 -48.9474 3.53609 399.985 -48.9474 3.53609 399.985
20 1 -49.8273 1.31407 400.83 -49.8273 1.31407 400.83
19 1 -50.7041 3.50537 401.758 -50.7041 3.50537 401.758
18 1 -51.5563 1.29119 402.705 -51.5563 1.29119 402.705
21 1 -49.1981 2.03937 403.196 -49.1981 2.03937 403.196
23 1 -48.3288 4.26035 402.285 -48.3288 4.26035 402.285
26 1 -45.9484 0.567309 402.754 -45.9484 0.567309 402.754
24 1 -47.4744 2.04357 401.348 -47.4744 2.04357 401.348
28 1 -45.0859 2.78547 401.855 -45.0859 2.78547 401.855
25 1 -46.5957 4.28668 400.416 -46.5957 4.28668 400.416
29 1 -44.2132 0.555217 400.871 -44.2132 0.555217 400.871
31 1 -43.3502 2.78395 400.017 -43.3502 2.78395 400.017
34 1 -40.9849 3.54557 400.47 -40.9849 3.54557 400.47
32 1 -42.711 3.51574 402.34 -42.711 3.51574 402.34
33 1 -41.8642 1.30444 401.401 -41.8642 1.30444 401.401
30 1 -43.5844 1.29551 403.254 -43.5844 1.29551 403.254
35 1 -40.3361 4.25565 402.811 -40.3361 4.25565 402.811
40 1 -37.7363 2.04395 400.078 -37.7363 2.04395 400.078
37 1 -39.4746 2.04617 401.914 -39.4746 2.04617 401.914
41 1 -37.0991 2.7765 402.401 -37.0991 2.7765 402.401
38 1 -38.6006 4.24239 400.931 -38.6006 4.24239 400.931
39 1 -37.9727 0.556668 403.315 -37.9727 0.556668 403.315
43 1 -35.372 2.80634 400.532 -35.372 2.80634 400.532
42 1 -36.2517 0.565002 401.463 -36.2517 0.565002 401.463
44 1 -34.724 3.51657 402.873 -34.724 3.51657 402.873
46 1 -33.8623 1.30705 401.976 -33.8623 1.30705 401.976
47 1 -32.9881 3.50336 400.993 -32.9881 3.50336 400.993
49 1 -32.1238 1.30492 400.14 -32.1238 1.30492 400.14
52 1 -29.7596 2.0674 400.595 -29.7596 2.0674 400.595
50 1 -31.4869 2.03752 402.463 -31.4869 2.03752 402.463
51 1 -30.6394 4.25351 401.525 -30.6394 4.25351 401.525
53 1 -29.1119 2.77759 402.935 -29.1119 2.77759 402.935
54 1 -28.9026 4.29655 399.76 -28.9026 4.29655 399.76
48 1 -32.3607 4.24516 403.377 -32.3607 4.24516 403.377
58 1 -26.5116 0.56593 400.203 -26.5116 0.56593 400.203
59 1 -25.875 1.29851 402.526 -25.875 1.29851 402.526
56 1 -27.3759 2.76439 401.056 -27.3759 2.76439 401.056
55 1 -28.2501 0.568063 402.038 -28.2501 0.568063 402.038
60 1 -25.0274 3.51451 401.588 -25.0274 3.51451 401.588
57 1 -26.7487 3.50617 403.44 -26.7487 3.50617 403.44
61 1 -24.1477 1.32839 400.658 -24.1477 1.32839 400.658
63 1 -23.2908 3.55754 399.823 -23.2908 3.55754 399.823
62 1 -23.5 2.03848 402.999 -23.5 2.03848 402.999
64 1 -22.6382 4.25638 402.101 -22.6382 4.25638 402.101
65 1 -21.7641 2.02518 401.118 -21.7641 2.02518 401.118
66 1 -21.1369 2.76692 403.503 -21.1369 2.76692 403.503
70 1 -18.5359 0.588818 400.72 -18.5359 0.588818 400.72
68 1 -20.263 0.559207 402.589 -20.263 0.559207 402.589
69 1 -19.4159 2.77498 401.651 -19.4159 2.77498 401.651
67 1 -20.8998 4.25416 400.265 -20.8998 4.25416 400.265
72 1 -17.6806 2.81765 399.885 -17.6806 2.81765 399.885
71 1 -17.8876 1.29906 403.061 -17.8876 1.29906 403.061
75 1 -15.2904 3.51495 400.326 -15.2904 3.51495 400.326
74 1 -16.1522 1.28611 401.18 -16.1522 1.28611 401.18
73 1 -17.0269 3.51671 402.163 -17.0269 3.51671 402.163
76 1 -14.6506 4.2435 402.647 -14.6506 4.2435 402.647
77 1 -13.7968 2.02961 401.7 -13.7968 2.02961 401.7
348 1 -15.522 2.02533 403.561 -15.522 2.02533 403.561
80 1 -12.0383 2.05993 399.929 -12.0383 2.05993 399.929
81 1 -11.4208 2.78449 402.229 -11.4208 2.78449 402.229
78 1 -12.9197 4.26536 400.773 -12.9197 4.26536 400.773
79 1 -12.291 0.563863 403.139 -12.291 0.563863 403.139
83 1 -9.68642 2.81031 400.361 -9.68642 2.81031 400.361
82 1 -10.566 0.567298 401.292 -10.566 0.567298 401.292
87 1 -7.30383 3.50648 400.817 -7.30383 3.50648 400.817
84 1 -9.04001 3.51888 402.699 -9.04001 3.51888 402.699
86 1 -8.17709 1.30938 401.801 -8.17709 1.30938 401.801
89 1 -6.4405 1.30775 399.964 -6.4405 1.30775 399.964
90 1 -5.8022 2.03976 402.287 -5.8022 2.03976 402.287
88 1 -6.67592 4.24708 403.201 -6.67592 4.24708 403.201
92 1 -4.07539 2.06962 400.418 -4.07539 2.06962 400.418
93 1 -3.4274 2.77979 402.759 -3.4274 2.77979 402.759
91 1 -4.95506 4.25591 401.349 -4.95506 4.25591 401.349
96 1 -1.69141 2.7666 400.879 -1.69141 2.7666 400.879
95 1 -2.56569 0.570318 401.862 -2.56569 0.570318 401.862
98 1 -0.826917 0.568188 400.027 -0.826917 0.568188 400.027
100 1 0.656917 3.51698 401.413 0.656917 3.51698 401.413
99 1 -0.19069 1.30088 402.35 -0.19069 1.30088 402.35
97 1 -1.06447 3.50844 403.264 -1.06447 3.50844 403.264
101 1 1.53683 1.33101 400.482 1.53683 1.33101 400.482
102 1 2.18401 2.04111 402.823 2.18401 2.04111 402.823
105 1 3.92016 2.02821 400.944 3.92016 2.02821 400.944
104 1 3.04579 4.25915 401.926 3.04579 4.25915 401.926
108 1 5.42037 0.562484 402.415 5.42037 0.562484 402.415
107 1 4.78446 4.25726 400.091 4.78446 4.25726 400.091
106 1 4.54662 2.76997 403.328 4.54662 2.76997 403.328
110 1 7.14772 0.592852 400.547 7.14772 0.592852 400.547
111 1 7.79477 1.30274 402.888 7.79477 1.30274 402.888
109 1 6.26796 2.77873 401.477 6.26796 2.77873 401.477
113 1 8.65645 3.52085 401.991 8.65645 3.52085 401.991
114 1 9.53073 1.29 401.008 9.53073 1.29 401.008
116 1 10.3949 3.51905 400.155 10.3949 3.51905 400.155
118 1 11.8782 2.0405 401.542 11.8782 2.0405 401.542
117 1 11.0307 4.25164 402.48 11.0307 4.25164 402.48
121 1 13.6141 2.08383 399.777 13.6141 2.08383 399.777
120 1 13.4049 0.564346 402.953 13.4049 0.564346 402.953
119 1 12.7578 4.28211 400.611 12.7578 4.28211 400.611
115 1 10.1571 2.03163 403.393 10.1571 2.03163 403.393
122 1 14.2664 2.78247 402.056 14.2664 2.78247 402.056
123 1 15.1406 0.551678 401.073 15.1406 0.551678 401.073
125 1 16.0045 2.78069 400.22 16.0045 2.78069 400.22
126 1 16.6404 3.51317 402.544 16.6404 3.51317 402.544
127 1 17.4878 1.30206 401.606 17.4878 1.30206 401.606
124 1 15.767 1.29316 403.458 15.767 1.29316 403.458
130 1 19.2231 1.34534 399.841 19.2231 1.34534 399.841
128 1 18.3671 3.54364 400.675 18.3671 3.54364 400.675
129 1 19.0145 4.25311 403.017 19.0145 4.25311 403.017
131 1 19.8759 2.04375 402.12 19.8759 2.04375 402.12
132 1 20.7497 4.24035 401.136 20.7497 4.24035 401.136
133 1 21.3765 0.554229 403.522 21.3765 0.554229 403.522
134 1 21.6135 2.04189 400.283 21.6135 2.04189 400.283
136 1 23.0967 0.56281 401.67 23.0967 0.56281 401.67
135 1 22.25 2.77417 402.607 22.25 2.77417 402.607
139 1 24.8304 0.605675 399.903 24.8304 0.605675 399.903
137 1 23.9762 2.80431 400.738 23.9762 2.80431 400.738
138 1 24.6245 3.51387 403.079 24.6245 3.51387 403.079
141 1 26.359 3.5014 401.198 26.359 3.5014 401.198
140 1 25.4846 1.30424 402.181 25.4846 1.30424 402.181
142 1 27.2201 1.30277 400.343 27.2201 1.30277 400.343
143 1 27.86 2.03097 402.664 27.86 2.03097 402.664
144 1 28.7133 4.24476 401.718 28.7133 4.24476 401.718
145 1 29.5898 2.05315 400.79 29.5898 2.05315 400.79
147 1 30.4701 4.27509 399.945 30.4701 4.27509 399.945
146 1 30.2188 2.77861 403.157 30.2188 2.77861 403.157
150 1 32.8214 0.598099 400.377 32.8214 0.598099 400.377
148 1 31.0884 0.571946 402.246 31.0884 0.571946 402.246
149 1 31.9426 2.78249 401.308 31.9426 2.78249 401.308
153 1 34.3308 3.52409 401.817 34.3308 3.52409 401.817
151 1 33.4685 1.30601 402.715 33.4685 1.30601 402.715
156 1 36.0662 3.52258 399.978 36.0662 3.52258 399.978
154 1 35.2035 1.29389 400.832 35.2035 1.29389 400.832
157 1 36.7051 4.2542 402.302 36.7051 4.2542 402.302
155 1 35.832 2.03396 403.216 35.832 2.03396 403.216
158 1 37.5517 2.043 401.363 37.5517 2.043 401.363
159 1 38.4307 4.28421 400.432 38.4307 4.28421 400.432
162 1 39.9407 2.78436 401.875 39.9407 2.78436 401.875
160 1 39.0796 0.566331 402.773 39.0796 0.566331 402.773
163 1 40.8143 0.553317 400.892 40.8143 0.553317 400.892
165 1 41.6782 2.78231 400.038 41.6782 2.78231 400.038
164 1 41.4422 1.29463 403.276 41.4422 1.29463 403.276
168 1 44.0416 3.54475 400.493 44.0416 3.54475 400.493
167 1 43.1623 1.30328 401.424 43.1623 1.30328 401.424
166 1 42.3153 3.51458 402.362 42.3153 3.51458 402.362
169 1 44.6899 4.25436 402.834 44.6899 4.25436 402.834
171 1 45.5511 2.04497 401.936 45.5511 2.04497 401.936
174 1 47.2885 2.04309 400.099 47.2885 2.04309 400.099
175 1 47.9256 2.77539 402.423 47.9256 2.77539 402.423
172 1 46.4248 4.24154 400.953 46.4248 4.24154 400.953
173 1 47.0524 0.555392 403.338 47.0524 0.555392 403.338
177 1 49.6517 2.80571 400.554 49.6517 2.80571 400.554
176 1 48.7726 0.564186 401.485 48.7726 0.564186 401.485
179 1 50.5076 0.607402 399.719 50.5076 0.607402 399.719
181 1 52.0348 3.50253 401.014 52.0348 3.50253 401.014
178 1 50.3 3.51525 402.895 50.3 3.51525 402.895
180 1 51.1611 1.3059 401.997 51.1611 1.3059 401.997
183 1 52.8984 1.30409 400.16 52.8984 1.30409 400.16
184 1 53.5356 2.03639 402.484 53.5356 2.03639 402.484
186 1 55.2616 2.06678 400.615 55.2616 2.06678 400.615
187 1 55.91 2.77628 402.956 55.91 2.77628 402.956
188 1 56.1174 4.29593 399.78 56.1174 4.29593 399.78
185 1 54.3825 4.25268 401.546 54.3825 4.25268 401.546
182 1 52.6625 4.24381 403.399 52.6625 4.24381 403.399
189 1 56.771 0.566961 402.058 56.771 0.566961 402.058
192 1 58.5081 0.565177 400.221 58.5081 0.565177 400.221
194 1 59.9922 3.51379 401.607 59.9922 3.51379 401.607
193 1 59.1454 1.29748 402.545 59.1454 1.29748 402.545
190 1 57.6446 2.76361 401.075 57.6446 2.76361 401.075
191 1 58.2724 3.50489 403.46 58.2724 3.50489 403.46
195 1 60.8712 1.32791 400.675 60.8712 1.32791 400.675
197 1 61.7268 3.55705 399.84 61.7268 3.55705 399.84
199 1 63.2542 2.02472 401.135 63.2542 2.02472 401.135
196 1 61.5198 2.03738 403.017 61.5198 2.03738 403.017
198 1 62.3807 4.25551 402.119 62.3807 4.25551 402.119
200 1 63.8822 2.76599 403.52 63.8822 2.76599 403.52
202 1 64.755 0.558561 402.606 64.755 0.558561 402.606
201 1 64.1176 4.25372 400.282 64.1176 4.25372 400.282
206 1 67.3361 2.81811 399.9 67.3361 2.81811 399.9
204 1 66.4806 0.588972 400.736 66.4806 0.588972 400.736
203 1 65.6018 2.77488 401.667 65.6018 2.77488 401.667
205 1 67.1294 1.29839 403.077 67.1294 1.29839 403.077
207 1 67.9903 3.51648 402.179 67.9903 3.51648 402.179
209 1 69.7269 3.5146 400.341 69.7269 3.5146 400.341
208 1 68.8635 1.28561 401.195 68.8635 1.28561 401.195
211 1 71.211 2.03544 401.727 71.211 2.03544 401.727
210 1 70.3648 4.24683 402.665 70.3648 4.24683 402.665
212 1 72.09 4.27691 400.795 72.09 4.27691 400.795
214 1 72.9439 2.07829 399.959 72.9439 2.07829 399.959
217 1 75.334 2.77545 400.398 75.334 2.77545 400.398
216 1 74.4733 0.5466 401.253 74.4733 0.5466 401.253
215 1 73.5994 2.77692 402.237 73.5994 2.77692 402.237
213 1 72.7398 0.559092 403.136 72.7398 0.559092 403.136
218 1 75.9753 3.50371 402.719 75.9753 3.50371 402.719
220 1 77.7042 3.52589 400.844 77.7042 3.52589 400.844
219 1 76.8282 1.29004 401.772 76.8282 1.29004 401.772
222 1 78.5844 1.32042 399.998 78.5844 1.32042 399.998
223 1 79.2037 2.0448 402.298 79.2037 2.0448 402.298
221 1 78.3346 4.25146 403.21 78.3346 4.25146 403.21
224 1 80.0576 4.25529 401.361 80.0576 4.25529 401.361
225 1 80.9361 2.07091 400.429 80.9361 2.07091 400.429
229 1 83.3185 2.76686 400.883 83.3185 2.76686 400.883
228 1 82.4463 0.569642 401.868 82.4463 0.569642 401.868
226 1 81.5843 2.77903 402.766 81.5843 2.77903 402.766
231 1 84.181 0.568115 400.029 84.181 0.568115 400.029
234 1 86.5459 1.32986 400.481 86.5459 1.32986 400.481
233 1 85.6672 3.51612 401.413 85.6672 3.51612 401.413
235 1 87.1957 2.03967 402.822 87.1957 2.03967 402.822
232 1 84.821 1.2999 402.352 84.821 1.2999 402.352
230 1 83.9482 3.50715 403.267 83.9482 3.50715 403.267
241 1 90.4313 0.560517 402.41 90.4313 0.560517 402.41
238 1 88.9298 2.02653 400.941 88.9298 2.02653 400.941
240 1 89.7934 4.2555 400.087 89.7934 4.2555 400.087
237 1 88.0565 4.25765 401.924 88.0565 4.25765 401.924
239 1 89.5586 2.76814 403.325 89.5586 2.76814 403.325
242 1 91.278 2.77658 401.472 91.278 2.77658 401.472
243 1 92.1569 0.590501 400.541 92.1569 0.590501 400.541
247 1 94.54 1.28697 401.001 94.54 1.28697 401.001
246 1 93.6668 3.51816 401.984 93.6668 3.51816 401.984
244 1 92.806 1.30033 402.882 92.806 1.30033 402.882
254 1 98.6205 2.07792 399.767 98.6205 2.07792 399.767
249 1 95.4037 3.51584 400.147 95.4037 3.51584 400.147
253 1 98.416 0.560824 402.943 98.416 0.560824 402.943
251 1 96.8873 2.03647 401.533 96.8873 2.03647 401.533
252 1 97.7667 4.27717 400.602 97.7667 4.27717 400.602
250 1 96.0412 4.24839 402.471 96.0412 4.24839 402.471
248 1 95.1685 2.02892 403.385 95.1685 2.02892 403.385
258 1 101.01 2.77127 400.208 101.01 2.77127 400.208
255 1 99.2754 2.77751 402.045 99.2754 2.77751 402.045
259 1 101.646 3.51357 402.537 101.646 3.51357 402.537
260 1 102.49 1.30411 401.609 102.49 1.30411 401.609
256 1 100.15 0.545086 401.062 100.15 0.545086 401.062
257 1 100.777 1.2938 403.451 100.777 1.2938 403.451
263 1 104.197 1.33775 399.853 104.197 1.33775 399.853
261 1 103.353 3.54618 400.673 103.353 3.54618 400.673
264 1 104.907 2.04203 402.081 104.907 2.04203 402.081
265 1 105.752 4.23865 401.123 105.752 4.23865 401.123
262 1 104.033 4.2536 402.995 104.033 4.2536 402.995
266 1 106.399 0.552474 403.497 106.399 0.552474 403.497
268 1 -62.1528 3.50748 404.927 -62.1528 3.50748 404.927
271 1 -60.6478 2.02651 406.37 -60.6478 2.02651 406.37
270 1 -61.2928 1.30579 403.982 -61.2928 1.30579 403.982
267 1 -63.0148 1.28645 405.87 -63.0148 1.28645 405.87
272 1 -59.787 4.2489 405.433 -59.787 4.2489 405.433
269 1 -61.5111 4.23238 407.311 -61.5111 4.23238 407.311
277 1 -57.4082 0.553318 405.94 -57.4082 0.553318 405.94
274 1 -58.9206 2.04098 404.494 -58.9206 2.04098 404.494
278 1 -56.5348 2.7658 405.003 -56.5348 2.7658 405.003
275 1 -58.275 2.76267 406.872 -58.275 2.76267 406.872
276 1 -58.0482 4.25268 403.579 -58.0482 4.25268 403.579
279 1 -55.8989 3.49345 407.377 -55.8989 3.49345 407.377
280 1 -55.6645 0.551343 404.075 -55.6645 0.551343 404.075
286 1 -52.4271 3.49901 403.621 -52.4271 3.49901 403.621
282 1 -54.1594 3.49616 405.504 -54.1594 3.49616 405.504
284 1 -53.2905 1.2869 404.576 -53.2905 1.2869 404.576
281 1 -55.03 1.28164 406.444 -55.03 1.28164 406.444
285 1 -52.6558 2.01603 406.948 -52.6558 2.01603 406.948
291 1 -49.4177 0.54524 406.51 -49.4177 0.54524 406.51
288 1 -50.9225 2.02621 405.074 -50.9225 2.02621 405.074
292 1 -48.5523 2.76601 405.573 -48.5523 2.76601 405.573
287 1 -51.7893 4.23264 406.007 -51.7893 4.23264 406.007
290 1 -50.0609 4.24348 404.133 -50.0609 4.24348 404.133
294 1 -47.6847 0.559367 404.637 -47.6847 0.559367 404.637
297 1 -46.1794 3.50105 406.075 -46.1794 3.50105 406.075
296 1 -46.8222 2.77581 403.7 -46.8222 2.77581 403.7
298 1 -45.3129 1.29202 405.134 -45.3129 1.29202 405.134
295 1 -47.0449 1.2824 407.011 -47.0449 1.2824 407.011
300 1 -44.446 3.51109 404.206 -44.446 3.51109 404.206
306 1 -41.2092 2.03487 403.76 -41.2092 2.03487 403.76
302 1 -42.9395 2.02587 405.633 -42.9395 2.02587 405.633
304 1 -42.0699 4.24625 404.698 -42.0699 4.24625 404.698
301 1 -43.8046 4.23606 406.574 -43.8046 4.23606 406.574
305 1 -41.4318 0.543138 407.073 -41.4318 0.543138 407.073
307 1 -40.5668 2.76129 406.136 -40.5668 2.76129 406.136
310 1 -38.8345 2.77215 404.265 -38.8345 2.77215 404.265
312 1 -37.3277 1.28718 405.694 -37.3277 1.28718 405.694
311 1 -38.1926 3.49706 406.635 -38.1926 3.49706 406.635
308 1 -39.7002 0.55261 405.194 -39.7002 0.55261 405.194
313 1 -36.4584 3.50754 404.759 -36.4584 3.50754 404.759
315 1 -35.5974 1.29599 403.821 -35.5974 1.29599 403.821
316 1 -34.9552 2.02265 406.197 -34.9552 2.02265 406.197
317 1 -34.0885 4.2413 405.256 -34.0885 4.2413 405.256
314 1 -35.8201 4.23194 407.134 -35.8201 4.23194 407.134
319 1 -33.2226 2.03326 404.327 -33.2226 2.03326 404.327
320 1 -32.5809 2.75836 406.697 -32.5809 2.75836 406.697
324 1 -29.9854 0.557058 403.884 -29.9854 0.557058 403.884
321 1 -31.716 0.548373 405.757 -31.716 0.548373 405.757
322 1 -30.8464 2.76865 404.821 -30.8464 2.76865 404.821
323 1 -30.2084 3.49318 407.197 -30.2084 3.49318 407.197
325 1 -29.3434 1.28381 406.26 -29.3434 1.28381 406.26
328 1 -27.6106 1.2943 404.39 -27.6106 1.2943 404.39
326 1 -28.4766 3.50239 405.319 -28.4766 3.50239 405.319
329 1 -26.969 2.01947 406.76 -26.969 2.01947 406.76
330 1 -26.1041 4.23688 405.82 -26.1041 4.23688 405.82
331 1 -25.2345 2.02964 404.884 -25.2345 2.02964 404.884
337 1 -21.9986 0.555152 404.453 -21.9986 0.555152 404.453
334 1 -23.7315 0.544787 406.323 -23.7315 0.544787 406.323
335 1 -22.8647 2.76329 405.382 -22.8647 2.76329 405.382
333 1 -24.3734 4.24547 403.947 -24.3734 4.24547 403.947
338 1 -21.3571 1.28031 406.823 -21.3571 1.28031 406.823
332 1 -24.5965 2.75421 407.26 -24.5965 2.75421 407.26
340 1 -19.6224 1.29034 404.947 -19.6224 1.29034 404.947
342 1 -18.7616 3.50601 404.01 -18.7616 3.50601 404.01
339 1 -20.4922 3.49762 405.883 -20.4922 3.49762 405.883
344 1 -17.2519 2.02305 405.444 -17.2519 2.02305 405.444
343 1 -18.1196 4.23234 406.386 -18.1196 4.23234 406.386
341 1 -18.9845 2.01463 407.323 -18.9845 2.01463 407.323
347 1 -15.7479 0.541408 406.889 -15.7479 0.541408 406.889
349 1 -14.8827 2.75892 405.947 -14.8827 2.75892 405.947
346 1 -16.3865 4.24171 404.514 -16.3865 4.24171 404.514
350 1 -14.0166 0.551997 405.015 -14.0166 0.551997 405.015
351 1 -13.3761 1.27915 407.391 -13.3761 1.27915 407.391
353 1 -12.5108 3.49814 406.452 -12.5108 3.49814 406.452
352 1 -13.1543 2.76858 404.075 -13.1543 2.76858 404.075
354 1 -11.6453 1.29108 405.516 -11.6453 1.29108 405.516
356 1 -10.7773 3.51152 404.581 -10.7773 3.51152 404.581
358 1 -9.91438 1.30014 403.645 -9.91438 1.30014 403.645
357 1 -10.1377 4.23483 406.956 -10.1377 4.23483 406.956
363 1 -6.89704 2.7606 406.52 -6.89704 2.7606 406.52
359 1 -9.27209 2.02577 406.02 -9.27209 2.02577 406.02
362 1 -7.53797 2.03537 404.151 -7.53797 2.03537 404.151
360 1 -8.40519 4.24397 405.079 -8.40519 4.24397 405.079
364 1 -6.03174 0.550253 405.58 -6.03174 0.550253 405.58
368 1 -4.30087 0.559049 403.707 -4.30087 0.559049 403.707
366 1 -5.16181 2.77051 404.645 -5.16181 2.77051 404.645
369 1 -3.65915 1.28565 406.084 -3.65915 1.28565 406.084
367 1 -4.52431 3.49504 407.02 -4.52431 3.49504 407.02
370 1 -2.7923 3.50437 405.143 -2.7923 3.50437 405.143
372 1 -1.92639 1.29643 404.214 -1.92639 1.29643 404.214
376 1 0.449345 2.03195 404.709 0.449345 2.03195 404.709
373 1 -1.28515 2.02146 406.585 -1.28515 2.02146 406.585
374 1 -0.420181 4.23903 405.644 -0.420181 4.23903 405.644
379 1 1.95194 0.547171 406.148 1.95194 0.547171 406.148
378 1 1.31042 4.24792 403.772 1.31042 4.24792 403.772
377 1 1.08694 2.75643 407.085 1.08694 2.75643 407.085
383 1 4.32573 1.28302 406.649 4.32573 1.28302 406.649
380 1 2.81871 2.76587 405.207 2.81871 2.76587 405.207
382 1 3.68469 0.557912 404.279 3.68469 0.557912 404.279
384 1 5.19067 3.50058 405.709 5.19067 3.50058 405.709
385 1 6.06019 1.29351 404.774 6.06019 1.29351 404.774
387 1 6.92125 3.50952 403.836 6.92125 3.50952 403.836
388 1 7.56262 4.2362 406.213 7.56262 4.2362 406.213
386 1 6.69765 2.018 407.15 6.69765 2.018 407.15
389 1 8.42934 2.02745 405.272 8.42934 2.02745 405.272
391 1 9.29524 4.24697 404.344 9.29524 4.24697 404.344
392 1 9.93624 0.544588 406.715 9.93624 0.544588 406.715
393 1 10.8011 2.76216 405.774 10.8011 2.76216 405.774
394 1 11.6705 0.555099 404.838 11.6705 0.555099 404.838
396 1 12.5315 2.77113 403.901 12.5315 2.77113 403.901
397 1 13.1729 3.49773 406.278 13.1729 3.49773 406.278
395 1 12.308 1.27953 407.215 12.308 1.27953 407.215
398 1 14.0395 1.28897 405.337 14.0395 1.28897 405.337
400 1 14.9053 3.50849 404.408 14.9053 3.50849 404.408
401 1 15.5464 4.23349 406.779 15.5464 4.23349 406.779
402 1 16.4112 2.02359 405.838 16.4112 2.02359 405.838
403 1 17.2805 4.24395 404.903 17.2805 4.24395 404.903
405 1 18.1413 2.03252 403.966 18.1413 2.03252 403.966
406 1 18.7829 2.75901 406.343 18.7829 2.75901 406.343
409 1 20.5151 2.76966 404.472 20.5151 2.76966 404.472
410 1 21.1565 3.49453 406.843 21.1565 3.49453 406.843
407 1 19.6494 0.550192 405.401 19.6494 0.550192 405.401
404 1 17.9181 0.540845 407.279 17.9181 0.540845 407.279
412 1 22.8905 3.50486 404.966 22.8905 3.50486 404.966
411 1 22.0211 1.28454 405.902 22.0211 1.28454 405.902
415 1 24.3929 2.0192 406.405 24.3929 2.0192 406.405
414 1 23.7509 1.29326 404.028 23.7509 1.29326 404.028
416 1 25.2601 4.23747 405.463 25.2601 4.23747 405.463
413 1 23.5283 4.22881 407.342 23.5283 4.22881 407.342
418 1 26.1252 2.02882 404.533 26.1252 2.02882 404.533
419 1 26.7639 2.7556 406.908 26.7639 2.7556 406.908
420 1 26.9892 4.24009 403.579 26.9892 4.24009 403.579
421 1 27.6286 0.545804 405.966 27.6286 0.545804 405.966
422 1 28.4943 2.76647 405.033 28.4943 2.76647 405.033
424 1 29.3561 0.555768 404.093 29.3561 0.555768 404.093
426 1 30.8649 3.50532 405.534 30.8649 3.50532 405.534
425 1 29.9999 1.28483 406.471 29.9999 1.28483 406.471
430 1 32.5948 3.51465 403.662 32.5948 3.51465 403.662
428 1 31.7324 1.29842 404.598 31.7324 1.29842 404.598
429 1 32.3724 2.02124 406.973 32.3724 2.02124 406.973
432 1 34.1039 2.03059 405.096 34.1039 2.03059 405.096
431 1 33.2376 4.23975 406.037 33.2376 4.23975 406.037
435 1 35.6122 0.546809 406.537 35.6122 0.546809 406.537
436 1 36.4769 2.76403 405.596 36.4769 2.76403 405.596
434 1 34.9706 4.24956 404.167 34.9706 4.24956 404.167
440 1 38.2067 2.77301 403.722 38.2067 2.77301 403.722
438 1 37.3463 0.556924 404.66 37.3463 0.556924 404.66
439 1 37.9846 1.28091 407.035 37.9846 1.28091 407.035
442 1 39.7155 1.2904 405.157 39.7155 1.2904 405.157
441 1 38.8492 3.49906 406.098 38.8492 3.49906 406.098
444 1 40.5809 3.50999 404.227 40.5809 3.50999 404.227
446 1 42.0874 2.02468 405.656 42.0874 2.02468 405.656
445 1 41.223 4.23449 406.598 41.223 4.23449 406.598
450 1 43.8169 2.0337 403.783 43.8169 2.0337 403.783
451 1 44.4594 2.75988 406.159 44.4594 2.75988 406.159
448 1 42.9564 4.24512 404.721 42.9564 4.24512 404.721
449 1 43.5949 0.541602 407.097 43.5949 0.541602 407.097
452 1 45.3257 0.551186 405.218 45.3257 0.551186 405.218
454 1 46.1911 2.77073 404.289 46.1911 2.77073 404.289
457 1 48.5666 3.50596 404.782 48.5666 3.50596 404.782
455 1 46.8332 3.49534 406.659 46.8332 3.49534 406.659
456 1 47.6976 1.28552 405.718 47.6976 1.28552 405.718
459 1 49.4271 1.29457 403.844 49.4271 1.29457 403.844
458 1 49.2052 4.22995 407.158 49.2052 4.22995 407.158
460 1 50.0696 2.02078 406.221 50.0696 2.02078 406.221
463 1 51.8012 2.03166 404.35 51.8012 2.03166 404.35
461 1 50.9358 4.23955 405.279 50.9358 4.23955 405.279
464 1 52.4434 2.7563 406.72 52.4434 2.7563 406.72
465 1 53.3077 0.546494 405.779 53.3077 0.546494 405.779
468 1 55.0371 0.555584 403.905 55.0371 0.555584 403.905
466 1 54.1767 2.76695 404.843 54.1767 2.76695 404.843
469 1 55.6797 1.28181 406.282 55.6797 1.28181 406.282
467 1 54.8153 3.49097 407.219 54.8153 3.49097 407.219
470 1 56.5459 3.50059 405.34 56.5459 3.50059 405.34
472 1 57.4112 1.29272 404.411 57.4112 1.29272 404.411
475 1 59.7866 2.02805 404.904 59.7866 2.02805 404.904
473 1 58.0535 2.01738 406.781 58.0535 2.01738 406.781
474 1 58.9178 4.23504 405.84 58.9178 4.23504 405.84
477 1 60.647 4.24413 403.966 60.647 4.24413 403.966
481 1 63.0211 0.553827 404.471 63.0211 0.553827 404.471
478 1 61.2898 0.542939 406.342 61.2898 0.542939 406.342
479 1 62.1558 2.76171 405.401 62.1558 2.76171 405.401
482 1 63.6636 1.27853 406.842 63.6636 1.27853 406.842
476 1 60.4255 2.75211 407.28 60.4255 2.75211 407.28
483 1 64.5278 3.49617 405.9 64.5278 3.49617 405.9
486 1 66.2568 3.50521 404.026 66.2568 3.50521 404.026
488 1 67.7658 2.02275 405.461 67.7658 2.02275 405.461
484 1 65.3965 1.28914 404.964 65.3965 1.28914 404.964
487 1 66.8999 4.23149 406.403 66.8999 4.23149 406.403
485 1 66.0356 2.01324 407.34 66.0356 2.01324 407.34
490 1 68.631 4.24227 404.531 68.631 4.24227 404.531
493 1 70.1378 2.75708 405.96 70.1378 2.75708 405.96
491 1 69.2737 0.53954 406.901 69.2737 0.53954 406.901
494 1 71.0067 0.550001 405.023 71.0067 0.550001 405.023
492 1 69.4919 2.02687 403.58 69.4919 2.02687 403.58
496 1 71.8667 2.76589 404.085 71.8667 2.76589 404.085
497 1 72.51 3.49179 406.461 72.51 3.49179 406.461
500 1 74.2414 3.50152 404.588 74.2414 3.50152 404.588
498 1 73.3768 1.28267 405.518 73.3768 1.28267 405.518
502 1 75.1049 1.28537 403.634 75.1049 1.28537 403.634
501 1 74.8814 4.22831 406.963 74.8814 4.22831 406.963
503 1 75.7456 2.01857 406.021 75.7456 2.01857 406.021
506 1 77.4722 2.0286 404.146 77.4722 2.0286 404.146
507 1 78.1174 2.75778 406.524 78.1174 2.75778 406.524
504 1 76.6109 4.23928 405.087 76.6109 4.23928 405.087
508 1 78.9819 0.550861 405.586 78.9819 0.550861 405.586
510 1 79.849 2.77144 404.651 79.849 2.77144 404.651
512 1 80.711 0.560207 403.713 80.711 0.560207 403.713
514 1 82.2209 3.50382 405.147 82.2209 3.50382 405.147
516 1 83.0872 1.29532 404.218 83.0872 1.29532 404.218
513 1 81.355 1.28553 406.088 81.355 1.28553 406.088
511 1 80.4903 3.49445 407.025 80.4903 3.49445 407.025
517 1 83.7299 2.02034 406.587 83.7299 2.02034 406.587
523 1 86.9669 0.545437 406.147 86.9669 0.545437 406.147
520 1 85.4632 2.03037 404.71 85.4632 2.03037 404.71
518 1 84.5943 4.23752 405.646 84.5943 4.23752 405.646
522 1 86.3232 4.2464 403.771 86.3232 4.2464 403.771
521 1 86.1027 2.7548 407.085 86.1027 2.7548 407.085
526 1 88.6977 0.556166 404.276 88.6977 0.556166 404.276
528 1 90.205 3.49878 405.705 90.205 3.49878 405.705
524 1 87.8328 2.76414 405.206 87.8328 2.76414 405.206
529 1 91.0735 1.29158 404.769 91.0735 1.29158 404.769
527 1 89.3411 1.28129 406.646 89.3411 1.28129 406.646
536 1 94.9519 0.543423 406.706 94.9519 0.543423 406.706
531 1 91.9335 3.50739 403.831 91.9335 3.50739 403.831
533 1 93.4431 2.02554 405.265 93.4431 2.02554 405.265
532 1 92.5774 4.23453 406.207 92.5774 4.23453 406.207
535 1 94.3079 4.24473 404.336 94.3079 4.24473 404.336
530 1 91.7135 2.01646 407.144 91.7135 2.01646 407.144
538 1 96.684 0.553221 404.829 96.684 0.553221 404.829
541 1 98.1884 3.49805 406.267 98.1884 3.49805 406.267
540 1 97.5435 2.76856 403.892 97.5435 2.76856 403.892
537 1 95.8156 2.76071 405.765 95.8156 2.76071 405.765
539 1 97.3249 1.27975 407.204 97.3249 1.27975 407.204
546 1 101.432 2.02532 405.82 101.432 2.02532 405.82
544 1 99.9173 3.5089 404.398 99.9173 3.5089 404.398
542 1 99.0537 1.2894 405.327 99.0537 1.2894 405.327
547 1 102.3 4.24581 404.884 102.3 4.24581 404.884
545 1 100.566 4.2349 406.763 100.566 4.2349 406.763
553 1 105.537 2.76786 404.439 105.537 2.76786 404.439
550 1 103.806 2.75857 406.317 103.806 2.75857 406.317
554 1 106.179 3.49459 406.812 106.179 3.49459 406.812
549 1 103.166 2.03449 403.941 103.166 2.03449 403.941
551 1 104.672 0.549425 405.375 104.672 0.549425 405.375
548 1 102.941 0.540823 407.257 102.941 0.540823 407.257
560 1 -60.8685 0.52969 409.69 -60.8685 0.52969 409.69
558 1 -62.3747 2.01211 408.251 -62.3747 2.01211 408.251
562 1 -60.0039 2.74976 408.75 -60.0039 2.74976 408.75
559 1 -61.7332 2.7375 410.629 -61.7332 2.7375 410.629
556 1 -63.2396 4.22009 409.19 -63.2396 4.22009 409.19
273 1 -59.1403 0.542777 407.812 -59.1403 0.542777 407.812
565 1 -57.6321 3.4854 409.251 -57.6321 3.4854 409.251
568 1 -56.1248 2.00142 410.691 -56.1248 2.00142 410.691
567 1 -56.7667 1.27677 408.314 -56.7667 1.27677 408.314
564 1 -58.4971 1.26606 410.19 -58.4971 1.26606 410.19
563 1 -59.3617 3.47396 411.128 -59.3617 3.47396 411.128
573 1 -52.885 0.526854 410.256 -52.885 0.526854 410.256
571 1 -54.3921 2.00977 408.818 -54.3921 2.00977 408.818
283 1 -53.5241 4.22615 407.881 -53.5241 4.22615 407.881
569 1 -55.2589 4.21965 409.753 -55.2589 4.21965 409.753
574 1 -52.0177 2.74465 409.321 -52.0177 2.74465 409.321
572 1 -53.7516 2.73647 411.193 -53.7516 2.73647 411.193
576 1 -51.1505 0.534669 408.384 -51.1505 0.534669 408.384
578 1 -49.6441 3.48056 409.823 -49.6441 3.48056 409.823
289 1 -50.2834 2.75373 407.448 -50.2834 2.75373 407.448
580 1 -48.7775 1.27152 408.886 -48.7775 1.27152 408.886
577 1 -50.5111 1.26223 410.759 -50.5111 1.26223 410.759
293 1 -47.9112 3.49064 407.949 -47.9112 3.49064 407.949
299 1 -44.6716 2.01708 407.51 -44.6716 2.01708 407.51
583 1 -46.4041 2.00736 409.386 -46.4041 2.00736 409.386
585 1 -45.5378 4.22605 408.449 -45.5378 4.22605 408.449
582 1 -47.2706 4.21621 410.323 -47.2706 4.21621 410.323
586 1 -44.8973 0.523923 410.823 -44.8973 0.523923 410.823
589 1 -43.1645 0.533545 408.948 -43.1645 0.533545 408.948
591 1 -41.6578 3.47737 410.385 -41.6578 3.47737 410.385
303 1 -42.2987 2.75172 408.01 -42.2987 2.75172 408.01
587 1 -44.031 2.74236 409.886 -44.031 2.74236 409.886
592 1 -40.7914 1.26848 409.448 -40.7914 1.26848 409.448
309 1 -39.0591 1.27798 407.571 -39.0591 1.27798 407.571