ITEM: TIMESTEP
0
ITEM: NUMBER OF ATOMS
4630
ITEM: BOX BOUNDS xy xz yz pp pp pp
-6.3421467274493679e+01 1.0644049912269368e+02 0.0000000000000000e+00
0.0000000000000000e+00 4.4274527100805940e+00 0.0000000000000000e+00
3.8000000000000000e+02 5.0000000000000000e+02 0.0000000000000000e+00
ITEM: ATOMS id type x y z xu yu zu
27 1 -45.6707 2.10812 399.549 -45.6707 2.10812 399.549
36 1 -40.0606 1.36665 399.607 -40.0606 1.36665 399.607
31 1 -43.2784 2.80297 399.988 -43.2784 2.80297 399.988
22 1 -48.8708 3.55499 399.956 -48.8708 3.55499 399.956
20 1 -49.7485 1.33313 400.803 -49.7485 1.33313 400.803
40 1 -37.6704 2.06285 400.049 -37.6704 2.06285 400.049
34 1 -40.9156 3.565 400.442 -40.9156 3.565 400.442
17 1 -52.1152 0.582362 400.355 -52.1152 0.582362 400.355
9 1 -57.6902 1.27309 400.266 -57.6902 1.27309 400.266
43 1 -35.3087 2.82565 400.504 -35.3087 2.82565 400.504
12 1 -55.3549 2.08428 400.749 -55.3549 2.08428 400.749
5 1 -60.0743 0.599105 399.804 -60.0743 0.599105 399.804
29 1 -44.1404 0.574238 400.843 -44.1404 0.574238 400.843
853 1 -57.1238 2.72737 414.928 -57.1238 2.72737 414.928
873 1 -45.9131 1.25167 415.056 -45.9131 1.25167 415.056
865 1 -50.014 0.506473 416.431 -50.014 0.506473 416.431
1174 1 -37.2963 1.97174 417.996 -37.2963 1.97174 417.996
883 1 -40.3067 0.512476 415.118 -40.3067 0.512476 415.118
863 1 -51.5198 1.99054 414.992 -51.5198 1.99054 414.992
315 1 -35.5337 1.31326 403.795 -35.5337 1.31326 403.795
307 1 -40.4975 2.77743 406.112 -40.4975 2.77743 406.112
1150 1 -51.7432 0.495353 418.308 -51.7432 0.495353 418.308
855 1 -55.6185 1.24361 416.368 -55.6185 1.24361 416.368
310 1 -38.7673 2.7892 404.24 -38.7673 2.7892 404.24
871 1 -46.7784 3.46027 415.994 -46.7784 3.46027 415.994
16 1 -52.9757 2.78077 401.211 -52.9757 2.78077 401.211
309 1 -38.9913 1.2933 407.548 -38.9913 1.2933 407.548
1156 1 -48.5083 3.44976 417.87 -48.5083 3.44976 417.87
867 1 -49.1492 2.72553 415.493 -49.1492 2.72553 415.493
1159 1 -46.1378 4.18459 418.371 -46.1378 4.18459 418.371
1168 1 -40.5318 3.44551 418.434 -40.5318 3.44551 418.434
1170 1 -39.6666 1.23693 417.495 -39.6666 1.23693 417.495
594 1 -39.8564 3.50176 408.488 -39.8564 3.50176 408.488
37 1 -39.4069 2.06437 401.886 -39.4069 2.06437 401.886
851 1 -57.9878 0.507777 415.867 -57.9878 0.507777 415.867
857 1 -54.7543 3.46316 415.429 -54.7543 3.46316 415.429
592 1 -40.7214 1.28281 409.426 -40.7214 1.28281 409.426
849 1 -58.852 2.71568 416.807 -58.852 2.71568 416.807
877 1 -43.5424 1.98633 415.556 -43.5424 1.98633 415.556
1143 1 -56.4826 3.45151 417.307 -56.4826 3.45151 417.307
1140 1 -58.211 3.4399 419.185 -58.211 3.4399 419.185
845 1 -61.2213 1.97991 416.307 -61.2213 1.97991 416.307
875 1 -44.4076 4.19494 416.494 -44.4076 4.19494 416.494
886 1 -38.5763 0.522872 413.242 -38.5763 0.522872 413.242
891 1 -35.341 3.47666 412.804 -35.341 3.47666 412.804
39 1 -37.9066 0.574341 403.289 -37.9066 0.574341 403.289
1177 1 -35.7912 0.487679 419.435 -35.7912 0.487679 419.435
1167 1 -41.3969 1.22662 419.372 -41.3969 1.22662 419.372
8 1 -58.5655 3.52857 401.225 -58.5655 3.52857 401.225
869 1 -47.6434 1.24135 416.932 -47.6434 1.24135 416.932
1136 1 -60.5804 2.70415 418.685 -60.5804 2.70415 418.685
1162 1 -44.6323 2.70038 419.81 -44.6323 2.70038 419.81
15 1 -53.8449 0.581301 402.197 -53.8449 0.581301 402.197
280 1 -55.5785 0.568652 404.051 -55.5785 0.568652 404.051
277 1 -57.3198 0.569587 405.917 -57.3198 0.569587 405.917
273 1 -59.0494 0.558039 407.791 -59.0494 0.558039 407.791
560 1 -60.7755 0.544053 409.67 -60.7755 0.544053 409.67
557 1 -62.5031 0.531619 411.55 -62.5031 0.531619 411.55
26 1 -45.8736 0.585252 402.727 -45.8736 0.585252 402.727
294 1 -47.6076 0.576365 404.613 -47.6076 0.576365 404.613
291 1 -49.3384 0.561317 406.487 -49.3384 0.561317 406.487
576 1 -51.069 0.549706 408.362 -51.069 0.549706 408.362
573 1 -52.8011 0.540819 410.236 -52.8011 0.540819 410.236
570 1 -54.5313 0.530903 412.112 -54.5313 0.530903 412.112
854 1 -56.2597 0.519503 413.989 -56.2597 0.519503 413.989
305 1 -41.3614 0.558774 407.049 -41.3614 0.558774 407.049
589 1 -43.0919 0.548169 408.927 -43.0919 0.548169 408.927
586 1 -44.8225 0.537538 410.803 -44.8225 0.537538 410.803
872 1 -46.5532 0.52717 412.679 -46.5532 0.52717 412.679
599 1 -36.8461 0.533382 411.365 -36.8461 0.533382 411.365
1132 1 -62.9498 1.96851 418.185 -62.9498 1.96851 418.185
4 1 -60.3422 3.55152 403.022 -60.3422 3.55152 403.022
268 1 -62.0588 3.52454 404.904 -62.0588 3.52454 404.904
1152 1 -50.8787 2.7147 417.369 -50.8787 2.7147 417.369
19 1 -50.6241 3.52411 401.732 -50.6241 3.52411 401.732
286 1 -52.3449 3.51659 403.596 -52.3449 3.51659 403.596
282 1 -54.0749 3.51264 405.481 -54.0749 3.51264 405.481
279 1 -55.812 3.50894 407.355 -55.812 3.50894 407.355
565 1 -57.5428 3.49986 409.23 -57.5428 3.49986 409.23
563 1 -59.2702 3.48748 411.11 -59.2702 3.48748 411.11
846 1 -60.998 3.47533 412.989 -60.998 3.47533 412.989
32 1 -42.6399 3.53408 402.313 -42.6399 3.53408 402.313
300 1 -44.3727 3.5283 404.18 -44.3727 3.5283 404.18
297 1 -46.1039 3.51729 406.051 -46.1039 3.51729 406.051
293 1 -47.8334 3.50588 407.927 -47.8334 3.50588 407.927
578 1 -49.564 3.49478 409.802 -49.564 3.49478 409.802
575 1 -51.2955 3.48488 411.677 -51.2955 3.48488 411.677
860 1 -53.0256 3.4745 413.552 -53.0256 3.4745 413.552
591 1 -41.5868 3.4912 410.365 -41.5868 3.4912 410.365
588 1 -43.3171 3.48076 412.241 -43.3171 3.48076 412.241
874 1 -45.0478 3.47048 414.118 -45.0478 3.47048 414.118
10 1 -57.078 2.04014 402.62 -57.078 2.04014 402.62
274 1 -58.8307 2.05808 404.471 -58.8307 2.05808 404.471
271 1 -60.5553 2.04263 406.348 -60.5553 2.04263 406.348
558 1 -62.2801 2.02735 408.23 -62.2801 2.02735 408.23
24 1 -47.3983 2.06284 401.321 -47.3983 2.06284 401.321
21 1 -49.1197 2.05724 403.171 -49.1197 2.05724 403.171
288 1 -50.8418 2.04307 405.05 -50.8418 2.04307 405.05
285 1 -52.5728 2.03181 406.925 -52.5728 2.03181 406.925
571 1 -54.3067 2.0245 408.797 -54.3067 2.0245 408.797
568 1 -56.0371 2.01511 410.672 -56.0371 2.01511 410.672
852 1 -57.765 2.00342 412.55 -57.765 2.00342 412.55
848 1 -59.493 1.99154 414.428 -59.493 1.99154 414.428
306 1 -41.1395 2.05231 403.734 -41.1395 2.05231 403.734
302 1 -42.8677 2.04233 405.609 -42.8677 2.04233 405.609
299 1 -44.5975 2.0325 407.487 -44.5975 2.0325 407.487
583 1 -46.3278 2.02178 409.365 -46.3278 2.02178 409.365
581 1 -48.0587 2.01114 411.241 -48.0587 2.01114 411.241
866 1 -49.7897 2.00104 413.116 -49.7897 2.00104 413.116
880 1 -41.8119 1.99662 413.68 -41.8119 1.99662 413.68
312 1 -37.262 1.30348 405.67 -37.262 1.30348 405.67
2 1 -61.8609 0.613673 401.586 -61.8609 0.613673 401.586
13 1 -54.7046 2.7858 403.099 -54.7046 2.7858 403.099
278 1 -56.4477 2.78261 404.979 -56.4477 2.78261 404.979
275 1 -58.1853 2.77842 406.85 -58.1853 2.77842 406.85
562 1 -59.9119 2.76458 408.73 -59.9119 2.76458 408.73
559 1 -61.639 2.75139 410.61 -61.639 2.75139 410.61
1166 1 -42.2619 3.43516 420.31 -42.2619 3.43516 420.31
889 1 -36.2061 1.2577 413.742 -36.2061 1.2577 413.742
28 1 -45.0122 2.80387 401.828 -45.0122 2.80387 401.828
296 1 -46.7462 2.79336 403.675 -46.7462 2.79336 403.675
292 1 -48.4741 2.78255 405.549 -48.4741 2.78255 405.549
289 1 -50.203 2.76928 407.426 -50.203 2.76928 407.426
574 1 -51.935 2.75915 409.3 -51.935 2.75915 409.3
572 1 -53.6665 2.74991 411.174 -53.6665 2.74991 411.174
856 1 -55.3956 2.73906 413.05 -55.3956 2.73906 413.05
303 1 -42.2272 2.76686 407.988 -42.2272 2.76686 407.988
587 1 -43.9573 2.75648 409.864 -43.9573 2.75648 409.864
584 1 -45.6878 2.74602 411.741 -45.6878 2.74602 411.741
870 1 -47.4187 2.73581 413.617 -47.4187 2.73581 413.617
6 1 -59.4633 1.33526 402.098 -59.4633 1.33526 402.098
270 1 -61.1999 1.32321 403.959 -61.1999 1.32321 403.959
267 1 -62.9199 1.30303 405.848 -62.9199 1.30303 405.848
890 1 -35.5661 1.98212 416.119 -35.5661 1.98212 416.119
18 1 -51.4754 1.30926 402.679 -51.4754 1.30926 402.679
284 1 -53.2072 1.30384 404.551 -53.2072 1.30384 404.551
281 1 -54.9443 1.29764 406.421 -54.9443 1.29764 406.421
567 1 -56.6785 1.29173 408.293 -56.6785 1.29173 408.293
564 1 -58.4067 1.28005 410.17 -58.4067 1.28005 410.17
561 1 -60.1341 1.26761 412.049 -60.1341 1.26761 412.049
844 1 -61.8622 1.25574 413.928 -61.8622 1.25574 413.928
33 1 -41.794 1.32343 401.374 -41.794 1.32343 401.374
30 1 -43.5122 1.31335 403.229 -43.5122 1.31335 403.229
298 1 -45.2384 1.30873 405.11 -45.2384 1.30873 405.11
295 1 -46.9682 1.29812 406.988 -46.9682 1.29812 406.988
580 1 -48.6986 1.28626 408.864 -48.6986 1.28626 408.864
577 1 -50.4298 1.27594 410.739 -50.4298 1.27594 410.739
862 1 -52.1607 1.26606 412.614 -52.1607 1.26606 412.614
590 1 -42.4519 1.27229 411.303 -42.4519 1.27229 411.303
876 1 -44.1824 1.26188 413.18 -44.1824 1.26188 413.18
1163 1 -43.7673 0.491875 418.871 -43.7673 0.491875 418.871
1153 1 -50.2376 3.43875 419.747 -50.2376 3.43875 419.747
311 1 -38.1258 3.51285 406.612 -38.1258 3.51285 406.612
42 1 -36.1875 0.583874 401.436 -36.1875 0.583874 401.436
1135 1 -61.4446 0.484707 419.624 -61.4446 0.484707 419.624
1171 1 -39.0266 1.9614 419.873 -39.0266 1.9614 419.873
1139 1 -59.0752 1.22041 420.124 -59.0752 1.22041 420.124
601 1 -35.9811 2.75234 410.426 -35.9811 2.75234 410.426
313 1 -36.3937 3.52429 404.733 -36.3937 3.52429 404.733
858 1 -53.89 1.25517 414.49 -53.89 1.25517 414.49
868 1 -48.284 0.517006 414.555 -48.284 0.517006 414.555
1147 1 -54.1131 4.18727 417.807 -54.1131 4.18727 417.807
843 1 -62.7264 3.46369 414.868 -62.7264 3.46369 414.868
593 1 -40.0815 2.00703 411.803 -40.0815 2.00703 411.803
308 1 -39.6319 0.569205 405.17 -39.6319 0.569205 405.17
861 1 -52.3844 4.19873 415.93 -52.3844 4.19873 415.93
1158 1 -47.0027 1.96556 419.309 -47.0027 1.96556 419.309
884 1 -39.4415 2.73139 414.18 -39.4415 2.73139 414.18
881 1 -41.1719 2.72105 416.057 -41.1719 2.72105 416.057
885 1 -38.8015 3.45582 416.557 -38.8015 3.45582 416.557
859 1 -53.2488 1.9793 416.869 -53.2488 1.9793 416.869
596 1 -38.3513 2.01749 409.926 -38.3513 2.01749 409.926
879 1 -42.0371 0.502179 416.995 -42.0371 0.502179 416.995
1172 1 -38.1615 4.1803 418.934 -38.1615 4.1803 418.934
1154 1 -49.3731 1.23058 418.808 -49.3731 1.23058 418.808
887 1 -37.9363 1.24728 415.619 -37.9363 1.24728 415.619
597 1 -37.7112 2.74182 412.303 -37.7112 2.74182 412.303
1161 1 -45.2728 1.97607 417.433 -45.2728 1.97607 417.433
1138 1 -59.7162 0.496167 417.746 -59.7162 0.496167 417.746
1149 1 -52.6076 2.70337 419.247 -52.6076 2.70337 419.247
41 1 -37.0341 2.79468 402.374 -37.0341 2.79468 402.374
888 1 -37.0712 3.4662 414.681 -37.0712 3.4662 414.681
1165 1 -42.9022 2.71077 417.933 -42.9022 2.71077 417.933
1141 1 -57.3468 1.23196 418.246 -57.3468 1.23196 418.246
1145 1 -54.9773 1.96774 418.746 -54.9773 1.96774 418.746
600 1 -36.6215 2.02798 408.049 -36.6215 2.02798 408.049
1148 1 -53.4719 0.483904 420.185 -53.4719 0.483904 420.185
882 1 -40.9467 4.21552 412.742 -40.9467 4.21552 412.742
1157 1 -47.8675 4.17387 420.248 -47.8675 4.17387 420.248
1144 1 -55.8415 4.17567 419.685 -55.8415 4.17567 419.685
602 1 -35.1159 0.543993 409.488 -35.1159 0.543993 409.488
1131 1 -63.1732 0.473359 421.502 -63.1732 0.473359 421.502
1755 1 -35.6008 2.65073 428.444 -35.6008 2.65073 428.444
1460 1 -40.1163 2.6754 424.127 -40.1163 2.6754 424.127
2308 1 -49.8485 3.33339 437.769 -49.8485 3.33339 437.769
2316 1 -44.8865 1.87191 435.453 -44.8865 1.87191 435.453
2312 1 -47.4791 4.06883 438.269 -47.4791 4.06883 438.269
1464 1 -37.7462 3.41031 424.627 -37.7462 3.41031 424.627
1461 1 -39.2514 0.466923 423.188 -39.2514 0.466923 423.188
2039 1 -38.4189 3.35355 434.576 -38.4189 3.35355 434.576
2613 1 -40.3711 1.84749 439.77 -40.3711 1.84749 439.77
1467 1 -35.3762 4.14523 425.128 -35.3762 4.14523 425.128
2603 1 -45.9739 2.58489 439.708 -45.9739 2.58489 439.708
1443 1 -49.5966 4.16279 422.125 -49.5966 4.16279 422.125
1748 1 -39.4759 3.39975 426.504 -39.4759 3.39975 426.504
2023 1 -47.256 1.13655 434.953 -47.256 1.13655 434.953
2310 1 -48.3433 1.84948 439.208 -48.3433 1.84948 439.208
1151 1 -51.1021 1.21939 420.686 -51.1021 1.21939 420.686
2303 1 -53.0821 0.378537 438.209 -53.0821 0.378537 438.209
2299 1 -55.4515 4.07044 437.709 -55.4515 4.07044 437.709
2033 1 -41.6528 0.39906 435.014 -41.6528 0.39906 435.014
1433 1 -55.2004 0.472376 422.063 -55.2004 0.472376 422.063
1430 1 -56.9289 0.46087 423.941 -56.9289 0.46087 423.941
1426 1 -58.6573 0.449407 425.819 -58.6573 0.449407 425.819
1713 1 -60.3858 0.437988 427.697 -60.3858 0.437988 427.697
1710 1 -62.1142 0.426608 429.575 -62.1142 0.426608 429.575
2330 1 -36.2732 2.59391 438.392 -36.2732 2.59391 438.392
1160 1 -45.4972 0.481358 420.748 -45.4972 0.481358 420.748
1447 1 -47.2266 0.470513 422.625 -47.2266 0.470513 422.625
1444 1 -48.9556 0.459394 424.502 -48.9556 0.459394 424.502
1730 1 -50.6843 0.448113 426.38 -50.6843 0.448113 426.38
1727 1 -52.4129 0.436755 428.258 -52.4129 0.436755 428.258
1724 1 -54.1414 0.425366 430.136 -54.1414 0.425366 430.136
2008 1 -55.8698 0.413971 432.014 -55.8698 0.413971 432.014
2006 1 -57.5981 0.402581 433.892 -57.5981 0.402581 433.892
1458 1 -40.9811 0.456375 425.065 -40.9811 0.456375 425.065
1743 1 -42.7105 0.445626 426.942 -42.7105 0.445626 426.942
1740 1 -44.4396 0.434681 428.819 -44.4396 0.434681 428.819
2026 1 -46.1684 0.423585 430.697 -46.1684 0.423585 430.697
2022 1 -47.897 0.412387 432.575 -47.897 0.412387 432.575
2019 1 -49.6255 0.401129 434.453 -49.6255 0.401129 434.453
2309 1 -48.9844 1.1253 436.83 -48.9844 1.1253 436.83
1137 1 -59.9394 3.4284 421.063 -59.9394 3.4284 421.063
1421 1 -61.6679 3.41699 422.941 -61.6679 3.41699 422.941
1439 1 -51.9664 3.42743 421.624 -51.9664 3.42743 421.624
1435 1 -53.695 3.41598 423.502 -53.695 3.41598 423.502
1432 1 -55.4236 3.40451 425.38 -55.4236 3.40451 425.38
1719 1 -57.152 3.39305 427.258 -57.152 3.39305 427.258
1716 1 -58.8804 3.38163 429.136 -58.8804 3.38163 429.136
2001 1 -60.6088 3.37023 431.014 -60.6088 3.37023 431.014
1998 1 -62.3372 3.35886 432.892 -62.3372 3.35886 432.892
2323 1 -40.1476 3.34254 436.453 -40.1476 3.34254 436.453
1453 1 -43.9918 3.42463 422.187 -43.9918 3.42463 422.187
1450 1 -45.7212 3.41384 424.064 -45.7212 3.41384 424.064
1446 1 -47.4502 3.40279 425.941 -47.4502 3.40279 425.941
1732 1 -49.179 3.39158 427.819 -49.179 3.39158 427.819
1729 1 -50.9076 3.38028 429.697 -50.9076 3.38028 429.697
2014 1 -52.6361 3.36894 431.575 -52.6361 3.36894 431.575
2011 1 -54.3644 3.35758 433.453 -54.3644 3.35758 433.453
1745 1 -41.2052 3.38901 428.381 -41.2052 3.38901 428.381
1742 1 -42.9343 3.3781 430.258 -42.9343 3.3781 430.258
2028 1 -44.6631 3.36704 432.136 -44.6631 3.36704 432.136
2025 1 -46.3918 3.35588 434.014 -46.3918 3.35588 434.014
1427 1 -58.4342 1.94465 422.502 -58.4342 1.94465 422.502
1424 1 -60.1626 1.9332 424.38 -60.1626 1.9332 424.38
1711 1 -61.8911 1.92181 426.258 -61.8911 1.92181 426.258
2322 1 -41.0119 1.12328 437.392 -41.0119 1.12328 437.392
1750 1 -37.9707 1.9157 427.943 -37.9707 1.9157 427.943
1155 1 -48.7321 1.95465 421.186 -48.7321 1.95465 421.186
1441 1 -50.461 1.94343 423.063 -50.461 1.94343 423.063
1438 1 -52.1897 1.93207 424.941 -52.1897 1.93207 424.941
1725 1 -53.9182 1.92065 426.819 -53.9182 1.92065 426.819
1722 1 -55.6467 1.90922 428.697 -55.6467 1.90922 428.697
1718 1 -57.3751 1.8978 430.575 -57.3751 1.8978 430.575
2003 1 -59.1035 1.8864 432.453 -59.1035 1.8864 432.453
2000 1 -60.8317 1.87502 434.331 -60.8317 1.87502 434.331
1459 1 -40.7566 1.95103 421.749 -40.7566 1.95103 421.749
1455 1 -42.4864 1.94049 423.626 -42.4864 1.94049 423.626
1452 1 -44.2158 1.92972 425.503 -44.2158 1.92972 425.503
1737 1 -45.9448 1.91873 427.38 -45.9448 1.91873 427.38
1735 1 -47.6737 1.90759 429.258 -47.6737 1.90759 429.258
2020 1 -49.4023 1.89634 431.136 -49.4023 1.89634 431.136
2017 1 -51.1308 1.88504 433.014 -51.1308 1.88504 433.014
2034 1 -41.4291 1.89407 431.697 -41.4291 1.89407 431.697
2031 1 -43.1579 1.88304 433.575 -43.1579 1.88304 433.575
2029 1 -44.0223 4.09121 434.514 -44.0223 4.09121 434.514
1146 1 -54.3361 2.69187 421.124 -54.3361 2.69187 421.124
1431 1 -56.0646 2.68034 423.002 -56.0646 2.68034 423.002
1428 1 -57.7931 2.66886 424.88 -57.7931 2.66886 424.88
1715 1 -59.5216 2.65742 426.758 -59.5216 2.65742 426.758
1712 1 -61.25 2.64602 428.636 -61.25 2.64602 428.636
1708 1 -62.9784 2.63466 430.514 -62.9784 2.63466 430.514
1747 1 -39.7 1.90497 429.82 -39.7 1.90497 429.82
1449 1 -46.362 2.6897 421.687 -46.362 2.6897 421.687
1445 1 -48.0911 2.67871 423.564 -48.0911 2.67871 423.564
1442 1 -49.82 2.66749 425.441 -49.82 2.66749 425.441
1728 1 -51.5486 2.65617 427.319 -51.5486 2.65617 427.319
1726 1 -53.2771 2.64479 429.197 -53.2771 2.64479 429.197
2010 1 -55.0056 2.63339 431.075 -55.0056 2.63339 431.075
2007 1 -56.7339 2.622 432.953 -56.7339 2.622 432.953
1456 1 -41.8458 2.66475 426.003 -41.8458 2.66475 426.003
1741 1 -43.5751 2.6539 427.881 -43.5751 2.6539 427.881
1738 1 -45.304 2.64287 429.758 -45.304 2.64287 429.758
2024 1 -47.0327 2.63172 431.636 -47.0327 2.63172 431.636
2021 1 -48.7613 2.62049 433.514 -48.7613 2.62049 433.514
2035 1 -40.7884 2.61831 434.075 -40.7884 2.61831 434.075
1754 1 -36.2411 1.92627 426.066 -36.2411 1.92627 426.066
1423 1 -60.8037 1.20896 422.002 -60.8037 1.20896 422.002
1420 1 -62.5322 1.19759 423.88 -62.5322 1.19759 423.88
2044 1 -35.1848 1.88049 434.137 -35.1848 1.88049 434.137
1437 1 -52.8308 1.20798 422.563 -52.8308 1.20798 422.563
1434 1 -54.5593 1.19652 424.441 -54.5593 1.19652 424.441
1721 1 -56.2878 1.18505 426.319 -56.2878 1.18505 426.319
1717 1 -58.0162 1.17361 428.197 -58.0162 1.17361 428.197
1714 1 -59.7446 1.1622 430.075 -59.7446 1.1622 430.075
1999 1 -61.473 1.15081 431.953 -61.473 1.15081 431.953
1997 1 -63.2013 1.13945 433.831 -63.2013 1.13945 433.831
1164 1 -43.1269 1.2162 421.249 -43.1269 1.2162 421.249
1451 1 -44.8565 1.20554 423.126 -44.8565 1.20554 423.126
1448 1 -46.5857 1.19461 425.003 -46.5857 1.19461 425.003
1734 1 -48.3146 1.18348 426.88 -48.3146 1.18348 426.88
1731 1 -50.0433 1.17222 428.758 -50.0433 1.17222 428.758
2016 1 -51.7718 1.16089 430.636 -51.7718 1.16089 430.636
2012 1 -53.5003 1.14953 432.514 -53.5003 1.14953 432.514
2009 1 -55.2286 1.13817 434.392 -55.2286 1.13817 434.392
1746 1 -40.3406 1.18068 427.442 -40.3406 1.18068 427.442
1744 1 -42.0698 1.16985 429.32 -42.0698 1.16985 429.32
2030 1 -43.7987 1.15886 431.197 -43.7987 1.15886 431.197
2027 1 -45.5275 1.14774 433.075 -45.5275 1.14774 433.075
2325 1 -39.2833 1.13434 435.514 -39.2833 1.13434 435.514
1749 1 -38.8354 4.12408 428.882 -38.8354 4.12408 428.882
1425 1 -59.2984 4.15264 423.441 -59.2984 4.15264 423.441
1736 1 -46.8093 4.1269 428.319 -46.8093 4.1269 428.319
1142 1 -56.7057 1.95616 420.624 -56.7057 1.95616 420.624
1720 1 -56.5109 4.11724 429.636 -56.5109 4.11724 429.636
2005 1 -58.2393 4.10583 431.514 -58.2393 4.10583 431.514
2002 1 -59.9676 4.09444 433.392 -59.9676 4.09444 433.392
1169 1 -39.8916 4.16995 420.811 -39.8916 4.16995 420.811
1723 1 -54.7825 4.12866 427.758 -54.7825 4.12866 427.758
1440 1 -51.3254 4.15149 424.002 -51.3254 4.15149 424.002
1733 1 -48.538 4.1157 430.197 -48.538 4.1157 430.197
2018 1 -50.2665 4.10442 432.075 -50.2665 4.10442 432.075
2015 1 -51.9949 4.09311 433.953 -51.9949 4.09311 433.953
2036 1 -40.5646 4.11327 430.759 -40.5646 4.11327 430.759
2032 1 -42.2935 4.1023 432.636 -42.2935 4.1023 432.636
2326 1 -38.6426 1.85859 437.892 -38.6426 1.85859 437.892
1752 1 -37.1059 4.13473 427.005 -37.1059 4.13473 427.005
1457 1 -41.6216 4.15951 422.688 -41.6216 4.15951 422.688
2043 1 -35.8252 1.1561 431.76 -35.8252 1.1561 431.76
2286 1 -62.56 1.86366 436.209 -62.56 1.86366 436.209
2319 1 -42.7404 1.11213 439.27 -42.7404 1.11213 439.27
1436 1 -53.054 4.14009 425.88 -53.054 4.14009 425.88
1422 1 -61.0269 4.14122 425.319 -61.0269 4.14122 425.319
1173 1 -37.5214 0.477327 421.311 -37.5214 0.477327 421.311
2293 1 -58.685 1.11545 438.148 -58.685 1.11545 438.148
2289 1 -61.0545 0.379846 437.648 -61.0545 0.379846 437.648
2295 1 -57.1796 4.05912 439.587 -57.1796 4.05912 439.587
1465 1 -36.8813 1.2018 423.689 -36.8813 1.2018 423.689
2315 1 -45.1098 0.376766 438.769 -45.1098 0.376766 438.769
2331 1 -36.0493 4.08879 435.076 -36.0493 4.08879 435.076
2297 1 -56.3156 1.85105 438.648 -56.3156 1.85105 438.648
2324 1 -39.5068 4.06678 438.831 -39.5068 4.06678 438.831
2306 1 -50.7127 1.11403 438.708 -50.7127 1.11403 438.708
2285 1 -62.7827 0.368508 439.526 -62.7827 0.368508 439.526
1462 1 -38.6111 1.19132 425.566 -38.6111 1.19132 425.566
1751 1 -37.3303 2.64007 430.321 -37.3303 2.64007 430.321
2329 1 -36.9138 1.8696 436.015 -36.9138 1.8696 436.015
2042 1 -36.6898 3.36444 432.698 -36.6898 3.36444 432.698
2041 1 -37.5544 1.14528 433.637 -37.5544 1.14528 433.637
2593 1 -51.5767 3.32213 439.647 -51.5767 3.32213 439.647
2328 1 -37.1375 0.374663 439.331 -37.1375 0.374663 439.331
2301 1 -53.9461 2.58661 439.148 -53.9461 2.58661 439.148
1466 1 -36.0163 3.42073 422.75 -36.0163 3.42073 422.75
2298 1 -56.0927 3.34621 435.331 -56.0927 3.34621 435.331
2321 1 -41.8762 3.33144 438.331 -41.8762 3.33144 438.331
2313 1 -46.615 1.86071 437.33 -46.615 1.86071 437.33
2294 1 -57.8209 3.33485 437.209 -57.8209 3.33485 437.209
2304 1 -52.2179 2.59791 437.27 -52.2179 2.59791 437.27
2300 1 -54.5874 1.86238 436.77 -54.5874 1.86238 436.77
2290 1 -60.1904 2.59925 436.709 -60.1904 2.59925 436.709
2318 1 -43.3814 0.387946 436.892 -43.3814 0.387946 436.892
2327 1 -37.7782 4.07784 436.953 -37.7782 4.07784 436.953
2004 1 -58.4622 2.61062 434.831 -58.4622 2.61062 434.831
2013 1 -52.8591 1.87372 434.892 -52.8591 1.87372 434.892
2288 1 -61.6959 4.08307 435.27 -61.6959 4.08307 435.27
2037 1 -39.924 0.410075 433.136 -39.924 0.410075 433.136
1739 1 -45.0804 4.13798 426.442 -45.0804 4.13798 426.442
1753 1 -36.4656 0.431693 429.382 -36.4656 0.431693 429.382
2307 1 -50.4897 2.60921 435.392 -50.4897 2.60921 435.392
2314 1 -45.7508 4.08005 436.392 -45.7508 4.08005 436.392
2040 1 -38.1949 0.42096 431.259 -38.1949 0.42096 431.259
2320 1 -42.5171 2.60724 435.953 -42.5171 2.60724 435.953
2292 1 -59.3263 0.391205 435.77 -59.3263 0.391205 435.77
2311 1 -48.1202 3.34465 435.892 -48.1202 3.34465 435.892
2302 1 -53.7233 4.08177 435.831 -53.7233 4.08177 435.831
2296 1 -56.9568 1.1268 436.27 -56.9568 1.1268 436.27
1463 1 -38.3864 2.68586 422.25 -38.3864 2.68586 422.25
2287 1 -61.9186 2.5879 438.587 -61.9186 2.5879 438.587
2291 1 -59.5491 3.32351 439.087 -59.5491 3.32351 439.087
2317 1 -44.2456 2.59609 437.831 -44.2456 2.59609 437.831
2038 1 -39.0595 2.62926 432.198 -39.0595 2.62926 432.198
2305 1 -51.3538 0.389838 436.331 -51.3538 0.389838 436.331
2332 1 -35.4088 0.38568 437.454 -35.4088 0.38568 437.454
1709 1 -62.7553 4.12986 427.197 -62.7553 4.12986 427.197
1468 1 -35.1512 1.21219 421.812 -35.1512 1.21219 421.812
1454 1 -43.3511 4.14886 424.564 -43.3511 4.14886 424.564
1429 1 -57.5699 4.16412 421.563 -57.5699 4.16412 421.563
1133 1 -62.3089 2.69275 420.563 -62.3089 2.69275 420.563
1175 1 -36.6563 2.69623 420.373 -36.6563 2.69623 420.373
2616 1 -38.2251 1.08778 443.587 -38.2251 1.08778 443.587
2901 1 -39.9532 1.07658 445.465 -39.9532 1.07658 445.465
2907 1 -36.72 4.03132 445.026 -36.72 4.03132 445.026
3194 1 -37.8069 0.316834 449.282 -37.8069 0.316834 449.282
2587 1 -54.8102 0.36724 440.087 -54.8102 0.36724 440.087
2597 1 -49.2074 4.05758 440.147 -49.2074 4.05758 440.147
2584 1 -56.5383 0.35596 441.965 -56.5383 0.35596 441.965
2581 1 -58.2663 0.344701 443.843 -58.2663 0.344701 443.843
2868 1 -59.9942 0.333461 445.721 -59.9942 0.333461 445.721
2865 1 -61.7221 0.322232 447.599 -61.7221 0.322232 447.599
2601 1 -46.838 0.365549 440.647 -46.838 0.365549 440.647
2598 1 -48.5662 0.35432 442.525 -48.5662 0.35432 442.525
2885 1 -50.2942 0.343105 444.403 -50.2942 0.343105 444.403
2882 1 -52.0221 0.331929 446.282 -52.0221 0.331929 446.282
2879 1 -53.75 0.320812 448.16 -53.75 0.320812 448.16
2612 1 -40.5943 0.352383 443.087 -40.5943 0.352383 443.087
2898 1 -42.3224 0.341175 444.964 -42.3224 0.341175 444.964
2895 1 -44.0503 0.329957 446.842 -44.0503 0.329957 446.842
3180 1 -45.7781 0.318757 448.72 -45.7781 0.318757 448.72
2576 1 -61.2772 3.31218 440.965 -61.2772 3.31218 440.965
2574 1 -63.0052 3.30087 442.843 -63.0052 3.30087 442.843
2589 1 -53.3049 3.31086 441.526 -53.3049 3.31086 441.526
2586 1 -55.0329 3.29963 443.404 -55.0329 3.29963 443.404
2874 1 -56.7608 3.28842 445.282 -56.7608 3.28842 445.282
2871 1 -58.4887 3.27725 447.16 -58.4887 3.27725 447.16
3155 1 -60.2165 3.2661 449.038 -60.2165 3.2661 449.038
2607 1 -43.6046 3.32027 440.208 -43.6046 3.32027 440.208
2604 1 -45.3328 3.30906 442.086 -45.3328 3.30906 442.086
2600 1 -47.0609 3.29784 443.964 -47.0609 3.29784 443.964
2887 1 -48.7888 3.28663 445.842 -48.7888 3.28663 445.842
2884 1 -50.5167 3.27547 447.721 -50.5167 3.27547 447.721
3168 1 -52.2446 3.26436 449.599 -52.2446 3.26436 449.599
2900 1 -40.8172 3.28469 446.404 -40.8172 3.28469 446.404
2897 1 -42.5451 3.27348 448.281 -42.5451 3.27348 448.281
2582 1 -58.0437 1.83973 440.526 -58.0437 1.83973 440.526
2579 1 -59.7717 1.82843 442.404 -59.7717 1.82843 442.404
2866 1 -61.4997 1.81714 444.282 -61.4997 1.81714 444.282
2578 1 -60.4131 1.10411 440.026 -60.4131 1.10411 440.026
2595 1 -50.0714 1.83824 441.086 -50.0714 1.83824 441.086
2592 1 -51.7995 1.827 442.964 -51.7995 1.827 442.964
2880 1 -53.5275 1.8158 444.843 -53.5275 1.8158 444.843
2877 1 -55.2554 1.80465 446.721 -55.2554 1.80465 446.721
2873 1 -56.9833 1.79355 448.599 -56.9833 1.79355 448.599
2609 1 -42.0994 1.83632 441.648 -42.0994 1.83632 441.648
2606 1 -43.8276 1.82512 443.525 -43.8276 1.82512 443.525
2892 1 -45.5556 1.8139 445.403 -45.5556 1.8139 445.403
2890 1 -47.2835 1.80269 447.281 -47.2835 1.80269 447.281
3174 1 -49.0113 1.79153 449.16 -49.0113 1.79153 449.16
2618 1 -37.3609 3.30709 442.648 -37.3609 3.30709 442.648
2585 1 -55.6742 2.57532 441.026 -55.6742 2.57532 441.026
2583 1 -57.4023 2.56405 442.904 -57.4023 2.56405 442.904
2870 1 -59.1302 2.55281 444.782 -59.1302 2.55281 444.782
2867 1 -60.8581 2.54157 446.66 -60.8581 2.54157 446.66
2863 1 -62.586 2.53034 448.538 -62.586 2.53034 448.538
2599 1 -47.7021 2.57366 441.586 -47.7021 2.57366 441.586
2596 1 -49.4302 2.56244 443.464 -49.4302 2.56244 443.464
2883 1 -51.1582 2.55124 445.343 -51.1582 2.55124 445.343
2881 1 -52.8861 2.54009 447.221 -52.8861 2.54009 447.221
3164 1 -54.6139 2.52901 449.099 -54.6139 2.52901 449.099
2610 1 -41.4584 2.56051 444.025 -41.4584 2.56051 444.025
2896 1 -43.1864 2.54929 445.903 -43.1864 2.54929 445.903
2893 1 -44.9142 2.53808 447.781 -44.9142 2.53808 447.781
3178 1 -46.642 2.5269 449.659 -46.642 2.5269 449.659
2575 1 -62.1412 1.09279 441.904 -62.1412 1.09279 441.904
2591 1 -52.4408 1.10277 440.586 -52.4408 1.10277 440.586
2588 1 -54.1689 1.09151 442.465 -54.1689 1.09151 442.465
2876 1 -55.8969 1.08029 444.343 -55.8969 1.08029 444.343
2872 1 -57.6248 1.0691 446.221 -57.6248 1.0691 446.221
2869 1 -59.3526 1.05794 448.099 -59.3526 1.05794 448.099
2605 1 -44.4687 1.10094 441.147 -44.4687 1.10094 441.147
2602 1 -46.1968 1.08972 443.025 -46.1968 1.08972 443.025
2889 1 -47.9249 1.07851 444.903 -47.9249 1.07851 444.903
2886 1 -49.6528 1.06732 446.781 -49.6528 1.06732 446.781
3170 1 -51.3807 1.05618 448.66 -51.3807 1.05618 448.66
2899 1 -41.6812 1.06536 447.343 -41.6812 1.06536 447.343
3184 1 -43.4089 1.05415 449.22 -43.4089 1.05415 449.22
2580 1 -58.9077 4.04781 441.465 -58.9077 4.04781 441.465
2577 1 -60.6357 4.03651 443.343 -60.6357 4.03651 443.343
2864 1 -62.3637 4.02523 445.221 -62.3637 4.02523 445.221
2862 1 -63.2276 1.80587 446.16 -63.2276 1.80587 446.16
2594 1 -50.9355 4.04634 442.025 -50.9355 4.04634 442.025
2590 1 -52.6635 4.03512 443.904 -52.6635 4.03512 443.904
2878 1 -54.3915 4.02394 445.782 -54.3915 4.02394 445.782
2875 1 -56.1194 4.01282 447.66 -56.1194 4.01282 447.66
3159 1 -57.8472 4.00174 449.538 -57.8472 4.00174 449.538
2611 1 -41.2353 4.05564 440.709 -41.2353 4.05564 440.709
2608 1 -42.9635 4.04445 442.586 -42.9635 4.04445 442.586
2894 1 -44.6916 4.03323 444.464 -44.6916 4.03323 444.464
2891 1 -46.4196 4.02202 446.342 -46.4196 4.02202 446.342
2888 1 -48.1474 4.01083 448.22 -48.1474 4.01083 448.22
2904 1 -38.4481 4.0201 446.904 -38.4481 4.0201 446.904
2621 1 -35.6325 3.31821 440.77 -35.6325 3.31821 440.77
2617 1 -38.0018 2.58284 440.27 -38.0018 2.58284 440.27
2614 1 -39.7302 2.5717 442.148 -39.7302 2.5717 442.148
2908 1 -36.0791 0.328078 447.404 -36.0791 0.328078 447.404
2619 1 -36.4968 1.09893 441.709 -36.4968 1.09893 441.709
2906 1 -36.943 2.53618 448.343 -36.943 2.53618 448.343
2905 1 -37.5841 1.81199 445.965 -37.5841 1.81199 445.965
2620 1 -35.8559 1.82318 444.087 -35.8559 1.82318 444.087
3190 1 -40.176 4.00888 448.782 -40.176 4.00888 448.782
2902 1 -39.3121 1.80076 447.843 -39.3121 1.80076 447.843
2903 1 -39.0892 3.29591 444.526 -39.0892 3.29591 444.526
2615 1 -38.866 0.363554 441.209 -38.866 0.363554 441.209
2909 1 -35.2151 2.54742 446.465 -35.2151 2.54742 446.465
14 1 -54.5042 4.31409 399.914 -54.5042 4.31409 399.914
7 1 -59.1711 2.81422 399.006 -59.1711 2.81422 399.006
25 1 -46.5209 4.30625 400.388 -46.5209 4.30625 400.388
38 1 -38.5337 4.2613 400.903 -38.5337 4.2613 400.903
23 1 -48.2517 4.27876 402.258 -48.2517 4.27876 402.258
287 1 -51.7075 4.24899 405.984 -51.7075 4.24899 405.984
878 1 -42.6771 4.20517 414.618 -42.6771 4.20517 414.618
579 1 -48.9242 4.21984 412.178 -48.9242 4.21984 412.178
585 1 -45.4626 4.24097 408.427 -45.4626 4.24097 408.427
290 1 -49.9813 4.26092 404.108 -49.9813 4.26092 404.108
11 1 -56.218 4.2617 401.699 -56.218 4.2617 401.699
595 1 -39.2164 4.22599 410.865 -39.2164 4.22599 410.865
1134 1 -62.0855 4.18791 417.246 -62.0855 4.18791 417.246
283 1 -53.4399 4.24142 407.859 -53.4399 4.24142 407.859
582 1 -47.1932 4.23013 410.303 -47.1932 4.23013 410.303
276 1 -57.9598 4.27033 403.554 -57.9598 4.27033 403.554
569 1 -55.1723 4.23385 409.733 -55.1723 4.23385 409.733
847 1 -60.3571 4.19942 415.367 -60.3571 4.19942 415.367
556 1 -63.1439 4.23484 409.171 -63.1439 4.23484 409.171
272 1 -59.6957 4.26546 405.41 -59.6957 4.26546 405.41
3 1 -60.9933 2.82549 400.69 -60.9933 2.82549 400.69
35 1 -40.2673 4.27343 402.785 -40.2673 4.27343 402.785
598 1 -37.4861 4.23663 408.988 -37.4861 4.23663 408.988
850 1 -58.629 4.21117 413.489 -58.629 4.21117 413.489