ITEM: TIMESTEP
0
ITEM: NUMBER OF ATOMS
4630
ITEM: BOX BOUNDS xy xz yz pp pp pp
-6.4194824573004155e+01 1.0721385642120416e+02 0.0000000000000000e+00
0.0000000000000000e+00 4.4274527100805940e+00 0.0000000000000000e+00
3.8000000000000000e+02 5.0000000000000000e+02 0.0000000000000000e+00
ITEM: ATOMS id type x y z xu yu zu
7 1 -59.8856 2.64349 399.222 -59.8856 2.64349 399.222
27 1 -46.2524 1.94284 399.776 -46.2524 1.94284 399.776
36 1 -40.5958 1.20246 399.835 -40.5958 1.20246 399.835
45 1 -34.9417 0.464001 399.897 -34.9417 0.464001 399.897
85 1 -9.06597 0.470835 399.722 -9.06597 0.470835 399.722
94 1 -3.4089 4.1582 399.781 -3.4089 4.1582 399.781
103 1 2.2452 3.4197 399.842 2.2452 3.4197 399.842
112 1 7.89914 2.68142 399.904 7.89914 2.68142 399.904
152 1 33.7767 2.68143 399.72 33.7767 2.68143 399.72
161 1 39.4355 1.93925 399.777 39.4355 1.93925 399.777
170 1 45.0916 1.19887 399.836 45.0916 1.19887 399.836
227 1 82.2888 4.1499 399.772 82.2888 4.1499 399.772
236 1 87.947 3.40907 399.83 87.947 3.40907 399.83
245 1 93.6013 2.66958 399.891 93.6013 2.66958 399.891
5 1 -60.7837 0.430783 400.02 -60.7837 0.430783 400.02
2 1 -62.5993 0.449138 401.782 -62.5993 0.449138 401.782
3 1 -61.7097 2.65923 400.9 -61.7097 2.65923 400.9
1 1 -63.4607 2.64026 402.716 107.948 2.64026 402.716
4 1 -61.0681 3.40004 403.217 -61.0681 3.40004 403.217
9 1 -58.39 1.1168 400.482 -58.39 1.1168 400.482
8 1 -59.2687 3.37048 401.435 -59.2687 3.37048 401.435
10 1 -57.7707 1.88628 402.822 -57.7707 1.88628 402.822
6 1 -60.1774 1.17896 402.303 -60.1774 1.17896 402.303
11 1 -56.903 4.10316 401.9 -56.903 4.10316 401.9
12 1 -56.0313 1.92125 400.96 -56.0313 1.92125 400.96
16 1 -53.6335 2.62104 401.424 -53.6335 2.62104 401.424
15 1 -54.5096 0.427794 402.406 -54.5096 0.427794 402.406
14 1 -55.1611 4.1514 400.134 -55.1611 4.1514 400.134
17 1 -52.7636 0.422645 400.575 -52.7636 0.422645 400.575
13 1 -55.3786 2.63609 403.298 -55.3786 2.63609 403.298
22 1 -49.481 3.39478 400.179 -49.481 3.39478 400.179
20 1 -50.3761 1.17185 401.017 -50.3761 1.17185 401.017
19 1 -51.2602 3.36563 401.937 -51.2602 3.36563 401.937
18 1 -52.1187 1.15632 402.884 -52.1187 1.15632 402.884
21 1 -49.7432 1.906 403.371 -49.7432 1.906 403.371
23 1 -48.8657 4.12305 402.468 -48.8657 4.12305 402.468
26 1 -46.4686 0.433126 402.935 -46.4686 0.433126 402.935
24 1 -48.0045 1.90018 401.531 -48.0045 1.90018 401.531
28 1 -45.5986 2.64789 402.044 -45.5986 2.64789 402.044
25 1 -47.1168 4.14089 400.607 -47.1168 4.14089 400.607
29 1 -44.7204 0.413131 401.063 -44.7204 0.413131 401.063
31 1 -43.8511 2.64169 400.214 -43.8511 2.64169 400.214
34 1 -41.4676 3.40068 400.663 -41.4676 3.40068 400.663
32 1 -43.2059 3.3788 402.525 -43.2059 3.3788 402.525
33 1 -42.3535 1.16275 401.586 -42.3535 1.16275 401.586
30 1 -44.0864 1.16222 403.433 -44.0864 1.16222 403.433
35 1 -40.8151 4.12248 402.993 -40.8151 4.12248 402.993
40 1 -38.1963 1.90239 400.276 -38.1963 1.90239 400.276
37 1 -39.9463 1.90988 402.104 -39.9463 1.90988 402.104
41 1 -37.5527 2.64058 402.586 -37.5527 2.64058 402.586
38 1 -39.0675 4.10099 401.123 -39.0675 4.10099 401.123
39 1 -38.4334 0.424424 403.493 -38.4334 0.424424 403.493
43 1 -35.8134 2.66218 400.725 -35.8134 2.66218 400.725
42 1 -36.6999 0.424094 401.647 -36.6999 0.424094 401.647
44 1 -35.1613 3.38443 403.055 -35.1613 3.38443 403.055
46 1 -34.2924 1.17171 402.166 -34.2924 1.17171 402.166
47 1 -33.4134 3.36284 401.186 -33.4134 3.36284 401.186
49 1 -32.5423 1.16425 400.338 -32.5423 1.16425 400.338
52 1 -30.1594 1.92422 400.787 -30.1594 1.92422 400.787
50 1 -31.8987 1.90261 402.649 -31.8987 1.90261 402.649
51 1 -31.0458 4.11359 401.71 -31.0458 4.11359 401.71
53 1 -29.5072 2.64656 403.118 -29.5072 2.64656 403.118
54 1 -29.2877 4.15351 399.96 -29.2877 4.15351 399.96
48 1 -32.7794 4.11397 403.556 -32.7794 4.11397 403.556
58 1 -26.8882 0.426345 400.401 -26.8882 0.426345 400.401
59 1 -26.2445 1.16475 402.711 -26.2445 1.16475 402.711
56 1 -27.7593 2.62494 401.248 -27.7593 2.62494 401.248
55 1 -28.6383 0.43383 402.228 -28.6383 0.43383 402.228
60 1 -25.3917 3.37571 401.772 -25.3917 3.37571 401.772
57 1 -27.1252 3.37615 403.618 -27.1252 3.37615 403.618
61 1 -24.5053 1.18633 400.85 -24.5053 1.18633 400.85
63 1 -23.6336 3.41562 400.022 -23.6336 3.41562 400.022
62 1 -23.853 1.90867 403.18 -23.853 1.90867 403.18
64 1 -22.9841 4.12336 402.291 -22.9841 4.12336 402.291
65 1 -22.1052 1.88694 401.31 -22.1052 1.88694 401.31
66 1 -21.4709 2.63815 403.68 -21.4709 2.63815 403.68
70 1 -18.851 0.447965 400.911 -18.851 0.447965 400.911
68 1 -20.59 0.426694 402.773 -20.59 0.426694 402.773
69 1 -19.7375 2.63742 401.834 -19.7375 2.63742 401.834
67 1 -21.2341 4.11579 400.463 -21.2341 4.11579 400.463
72 1 -17.9805 2.67697 400.083 -17.9805 2.67697 400.083
71 1 -18.1979 1.17053 403.241 -18.1979 1.17053 403.241
75 1 -15.5815 3.37774 400.522 -15.5815 3.37774 400.522
74 1 -16.4503 1.14904 401.371 -16.4503 1.14904 401.371
73 1 -17.3299 3.385 402.351 -17.3299 3.385 402.351
76 1 -14.9347 4.11284 402.83 -14.9347 4.11284 402.83
77 1 -14.0754 1.89415 401.882 -14.0754 1.89415 401.882
348 1 -15.8133 1.89811 403.737 -15.8133 1.89811 403.737
80 1 -12.2953 1.92291 400.125 -12.2953 1.92291 400.125
81 1 -11.6798 2.65165 402.414 -11.6798 2.65165 402.414
78 1 -13.1917 4.12739 400.963 -13.1917 4.12739 400.963
79 1 -12.5576 0.434929 403.316 -12.5576 0.434929 403.316
83 1 -9.93057 2.66889 400.553 -9.93057 2.66889 400.553
82 1 -10.8188 0.428282 401.476 -10.8188 0.428282 401.476
87 1 -7.53371 3.3688 401.009 -7.53371 3.3688 401.009
84 1 -9.28203 3.3892 402.88 -9.28203 3.3892 402.88
86 1 -8.41199 1.17628 401.99 -8.41199 1.17628 401.99
89 1 -6.66448 1.16989 400.16 -6.66448 1.16989 400.16
90 1 -6.01893 1.90724 402.471 -6.01893 1.90724 402.471
88 1 -6.89936 4.11826 403.378 -6.89936 4.11826 403.378
92 1 -4.28074 1.92896 400.608 -4.28074 1.92896 400.608
93 1 -3.62781 2.65094 402.938 -3.62781 2.65094 402.938
91 1 -5.16658 4.11855 401.531 -5.16658 4.11855 401.531
96 1 -1.88044 2.62931 401.069 -1.88044 2.62931 401.069
95 1 -2.75917 0.438275 402.049 -2.75917 0.438275 402.049
98 1 -1.00932 0.430693 400.221 -1.00932 0.430693 400.221
100 1 0.487262 3.37985 401.592 0.487262 3.37985 401.592
99 1 -0.365431 1.16893 402.531 -0.365431 1.16893 402.531
97 1 -1.24598 3.3803 403.439 -1.24598 3.3803 403.439
101 1 1.37362 1.19044 400.67 1.37362 1.19044 400.67
102 1 2.02601 1.9127 403 2.02601 1.9127 403
105 1 3.77367 1.89101 401.13 3.77367 1.89101 401.13
104 1 2.89477 4.12738 402.111 2.89477 4.12738 402.111
108 1 5.28853 0.430678 402.593 5.28853 0.430678 402.593
107 1 4.6447 4.11985 400.283 4.6447 4.11985 400.283
106 1 4.40794 2.64211 403.5 4.40794 2.64211 403.5
110 1 7.02759 0.452169 400.731 7.02759 0.452169 400.731
111 1 7.68001 1.17442 403.062 7.68001 1.17442 403.062
109 1 6.14127 2.6416 401.654 6.14127 2.6416 401.654
113 1 8.54877 3.38907 402.172 8.54877 3.38907 402.172
114 1 9.42763 1.15266 401.192 9.42763 1.15266 401.192
116 1 10.2986 3.38148 400.344 10.2986 3.38148 400.344
118 1 11.7953 1.90311 401.716 11.7953 1.90311 401.716
117 1 10.9426 4.1197 402.655 10.9426 4.1197 402.655
121 1 13.553 1.94284 399.966 13.553 1.94284 399.966
120 1 13.3341 0.435847 403.123 13.3341 0.435847 403.123
119 1 12.6816 4.14107 400.793 12.6816 4.14107 400.793
115 1 10.062 1.90374 403.562 10.062 1.90374 403.562
122 1 14.2029 2.65043 402.234 14.2029 2.65043 402.234
123 1 15.0817 0.41396 401.254 15.0817 0.41396 401.254
125 1 15.9526 2.64273 400.406 15.9526 2.64273 400.406
126 1 16.5968 3.38087 402.716 16.5968 3.38087 402.716
127 1 17.4495 1.16417 401.777 17.4495 1.16417 401.777
124 1 15.7163 1.16498 403.623 15.7163 1.16498 403.623
130 1 19.2071 1.20377 400.026 19.2071 1.20377 400.026
128 1 18.3356 3.40203 400.854 18.3356 3.40203 400.854
129 1 18.9885 4.12423 403.184 18.9885 4.12423 403.184
131 1 19.8573 1.91127 402.295 19.8573 1.91127 402.295
132 1 20.7358 4.10208 401.314 20.7358 4.10208 401.314
133 1 21.371 0.425584 403.683 21.371 0.425584 403.683
134 1 21.6069 1.90337 400.466 21.6069 1.90337 400.466
136 1 23.1039 0.424319 401.837 23.1039 0.424319 401.837
135 1 22.2516 2.64135 402.776 22.2516 2.64135 402.776
139 1 24.8607 0.463438 400.085 24.8607 0.463438 400.085
137 1 23.9903 2.66201 400.914 23.9903 2.66201 400.914
138 1 24.6442 3.38445 403.243 24.6442 3.38445 403.243
141 1 26.3913 3.36238 401.372 26.3913 3.36238 401.372
140 1 25.512 1.1712 402.353 25.512 1.1712 402.353
142 1 27.26 1.16349 400.523 27.26 1.16349 400.523
143 1 27.9078 1.89817 402.83 27.9078 1.89817 402.83
144 1 28.7667 4.10652 401.882 28.7667 4.10652 401.882
145 1 29.6504 1.91195 400.963 29.6504 1.91195 400.963
147 1 30.5467 4.13476 400.125 30.5467 4.13476 400.125
146 1 30.2855 2.64683 403.316 30.2855 2.64683 403.316
150 1 32.9121 0.452176 400.552 32.9121 0.452176 400.552
148 1 31.1632 0.435734 402.413 31.1632 0.435734 402.413
149 1 32.024 2.6394 401.475 32.024 2.6394 401.475
153 1 34.4315 3.3867 401.988 34.4315 3.3867 401.988
151 1 33.5615 1.17249 402.878 33.5615 1.17249 402.878
156 1 36.1787 3.37977 400.158 36.1787 3.37977 400.158
154 1 35.3095 1.15138 401.006 35.3095 1.15138 401.006
157 1 36.8254 4.11675 402.467 36.8254 4.11675 402.467
155 1 35.9451 1.90065 403.375 35.9451 1.90065 403.375
158 1 37.6776 1.90014 401.527 37.6776 1.90014 401.527
159 1 38.5634 4.1376 400.604 38.5634 4.1376 400.604
162 1 40.0859 2.64669 402.044 40.0859 2.64669 402.044
160 1 39.2173 0.432238 402.934 39.2173 0.432238 402.934
163 1 40.9644 0.409853 401.063 40.9644 0.409853 401.063
165 1 41.8356 2.63856 400.216 41.8356 2.63856 400.216
164 1 41.6001 1.16076 403.432 41.6001 1.16076 403.432
168 1 44.2197 3.39717 400.663 44.2197 3.39717 400.663
167 1 43.3332 1.15952 401.586 43.3332 1.15952 401.586
166 1 42.4807 3.37652 402.525 42.4807 3.37652 402.525
169 1 44.873 4.11968 402.992 44.873 4.11968 402.992
171 1 45.7418 1.90661 402.103 45.7418 1.90661 402.103
174 1 47.4917 1.89856 400.275 47.4917 1.89856 400.275
175 1 48.1367 2.63672 402.584 48.1367 2.63672 402.584
172 1 46.6206 4.09728 401.123 46.6206 4.09728 401.123
173 1 47.256 0.420985 403.492 47.256 0.420985 403.492
177 1 49.8758 2.65747 400.722 49.8758 2.65747 400.722
176 1 48.9894 0.419774 401.645 48.9894 0.419774 401.645
179 1 50.7479 0.459193 399.895 50.7479 0.459193 399.895
181 1 52.2768 3.35774 401.182 52.2768 3.35774 401.182
178 1 50.5291 3.3801 403.052 50.5291 3.3801 403.052
180 1 51.398 1.16705 402.163 51.398 1.16705 402.163
183 1 53.148 1.15904 400.335 53.148 1.15904 400.335
184 1 53.7928 1.89732 402.644 53.7928 1.89732 402.644
186 1 55.532 1.91814 400.782 55.532 1.91814 400.782
187 1 56.1853 2.64085 403.112 56.1853 2.64085 403.112
188 1 56.4042 4.14734 399.955 56.4042 4.14734 399.955
185 1 54.6456 4.10786 401.705 54.6456 4.10786 401.705
182 1 52.9121 4.10902 403.551 52.9121 4.10902 403.551
189 1 57.0542 0.427819 402.223 57.0542 0.427819 402.223
192 1 58.8042 0.419844 400.395 58.8042 0.419844 400.395
194 1 60.3018 3.36878 401.765 60.3018 3.36878 401.765
193 1 59.449 1.15822 402.704 59.449 1.15822 402.704
190 1 57.933 2.61853 401.243 57.933 2.61853 401.243
191 1 58.5683 3.36991 403.612 58.5683 3.36991 403.612
195 1 61.1883 1.17909 400.843 61.1883 1.17909 400.843
197 1 62.0604 3.40829 400.015 62.0604 3.40829 400.015
199 1 63.5892 1.87956 401.303 63.5892 1.87956 401.303
196 1 61.8414 1.90185 403.172 61.8414 1.90185 403.172
198 1 62.7104 4.11628 402.283 62.7104 4.11628 402.283
200 1 64.2245 2.631 403.672 64.2245 2.631 403.672
202 1 65.1052 0.419308 402.765 65.1052 0.419308 402.765
201 1 64.4604 4.10832 400.455 64.4604 4.10832 400.455
206 1 67.7165 2.66941 400.076 67.7165 2.66941 400.076
204 1 66.8444 0.440188 400.903 66.8444 0.440188 400.903
203 1 65.958 2.62988 401.826 65.958 2.62988 401.826
205 1 67.4976 1.16296 403.233 67.4976 1.16296 403.233
207 1 68.3666 3.37738 402.343 68.3666 3.37738 402.343
209 1 70.1166 3.36937 400.515 70.1166 3.36937 400.515
208 1 69.2453 1.14059 401.363 69.2453 1.14059 401.363
211 1 71.6141 1.89068 401.885 71.6141 1.89068 401.885
210 1 70.7616 4.10777 402.825 70.7616 4.10777 402.825
212 1 72.5007 4.12839 400.963 72.5007 4.12839 400.963
214 1 73.3716 1.92988 400.135 73.3716 1.92988 400.135
217 1 75.7712 2.63045 400.573 75.7712 2.63045 400.573
216 1 74.9022 0.401825 401.422 74.9022 0.401825 401.422
215 1 74.0227 2.63814 402.402 74.0227 2.63814 402.402
213 1 73.1546 0.423923 403.292 73.1546 0.423923 403.292
218 1 76.4188 3.36565 402.88 76.4188 3.36565 402.88
220 1 78.1618 3.37962 401.013 78.1618 3.37962 401.013
219 1 77.278 1.14661 401.932 77.278 1.14661 401.932
222 1 79.0586 1.17509 400.175 79.0586 1.17509 400.175
223 1 79.6745 1.90389 402.463 79.6745 1.90389 402.463
221 1 78.7966 4.11491 403.366 78.7966 4.11491 403.366
224 1 80.5356 4.10762 401.526 80.5356 4.10762 401.526
225 1 81.4239 1.92056 400.603 81.4239 1.92056 400.603
229 1 83.8213 2.6203 401.058 83.8213 2.6203 401.058
228 1 82.9431 0.428058 402.039 82.9431 0.428058 402.039
226 1 82.0729 2.64122 402.93 82.0729 2.64122 402.93
231 1 84.6906 0.421311 400.209 84.6906 0.421311 400.209
234 1 87.0749 1.1799 400.657 87.0749 1.1799 400.657
233 1 86.189 3.36972 401.58 86.189 3.36972 401.58
235 1 87.7283 1.90216 402.987 87.7283 1.90216 402.987
232 1 85.3367 1.1587 402.519 85.3367 1.1587 402.519
230 1 84.4563 3.36999 403.427 84.4563 3.36999 403.427
241 1 90.9909 0.419518 402.58 90.9909 0.419518 402.58
238 1 89.4755 1.87997 401.117 89.4755 1.87997 401.117
240 1 90.3467 4.1087 400.27 90.3467 4.1087 400.27
237 1 88.5969 4.11668 402.098 88.5969 4.11668 402.098
239 1 90.1105 2.63122 403.487 90.1105 2.63122 403.487
242 1 91.8434 2.63012 401.641 91.8434 2.63012 401.641
243 1 92.7297 0.440428 400.718 92.7297 0.440428 400.718
247 1 95.1295 1.14031 401.179 95.1295 1.14031 401.179
246 1 94.2509 3.37713 402.159 94.2509 3.37713 402.159
244 1 93.3824 1.16287 403.048 93.3824 1.16287 403.048
254 1 99.2523 1.92779 399.954 99.2523 1.92779 399.954
249 1 96.0006 3.3689 400.332 96.0006 3.3689 400.332
253 1 99.0359 0.423106 403.112 99.0359 0.423106 403.112
251 1 97.4962 1.88989 401.704 97.4962 1.88989 401.704
252 1 98.3826 4.12693 400.781 98.3826 4.12693 400.781
250 1 96.6444 4.10727 402.642 96.6444 4.10727 402.642
248 1 95.7642 1.892 403.549 95.7642 1.892 403.549
258 1 101.65 2.62338 400.395 101.65 2.62338 400.395
255 1 99.9029 2.63602 402.223 99.9029 2.63602 402.223
259 1 102.292 3.37151 402.711 102.292 3.37151 402.711
260 1 103.14 1.15547 401.784 103.14 1.15547 401.784
256 1 100.782 0.397555 401.242 100.782 0.397555 401.242
257 1 101.416 1.15665 403.617 101.416 1.15665 403.617
263 1 104.856 1.18116 400.039 104.856 1.18116 400.039
261 1 104.011 3.39229 400.856 104.011 3.39229 400.856
264 1 105.579 1.90384 402.255 105.579 1.90384 402.255
265 1 106.429 4.09978 401.303 106.429 4.09978 401.303
262 1 104.699 4.11869 403.164 104.699 4.11869 403.164
266 1 107.086 0.418257 403.66 107.086 0.418257 403.66
268 1 -62.8042 3.38025 405.082 -62.8042 3.38025 405.082
271 1 -61.2883 1.90611 406.521 -61.2883 1.90611 406.521
270 1 -61.9369 1.17571 404.143 -61.9369 1.17571 404.143
267 1 -63.6731 1.16296 406.022 -63.6731 1.16296 406.022
272 1 -60.4196 4.12517 405.589 -60.4196 4.12517 405.589
269 1 -62.1588 4.11522 407.457 -62.1588 4.11522 407.457
277 1 -58.0211 0.431654 406.098 -58.0211 0.431654 406.098
274 1 -59.5442 1.91326 404.658 -59.5442 1.91326 404.658
278 1 -57.139 2.64009 405.167 -57.139 2.64009 405.167
275 1 -58.8964 2.6449 407.023 -58.8964 2.6449 407.023
276 1 -58.6616 4.12098 403.749 -58.6616 4.12098 403.749
279 1 -56.5011 3.37753 407.528 -56.5011 3.37753 407.528
280 1 -56.2612 0.421968 404.243 -56.2612 0.421968 404.243
286 1 -52.9975 3.36771 403.793 -52.9975 3.36771 403.793
282 1 -54.7455 3.37286 405.666 -54.7455 3.37286 405.666
284 1 -53.8688 1.16023 404.744 -53.8688 1.16023 404.744
281 1 -55.6242 1.16184 406.601 -55.6242 1.16184 406.601
285 1 -53.2314 1.89797 407.104 -53.2314 1.89797 407.104
291 1 -49.9679 0.424969 406.669 -49.9679 0.424969 406.669
288 1 -51.4825 1.90027 405.24 -51.4825 1.90027 405.24
292 1 -49.095 2.64227 405.737 -49.095 2.64227 405.737
287 1 -52.3573 4.11042 406.167 -52.3573 4.11042 406.167
290 1 -50.6138 4.11325 404.303 -50.6138 4.11325 404.303
294 1 -48.2198 0.432244 404.808 -48.2198 0.432244 404.808
297 1 -46.7044 3.37952 406.239 -46.7044 3.37952 406.239
296 1 -47.3502 2.64459 403.875 -47.3502 2.64459 403.875
298 1 -45.8302 1.16696 405.303 -45.8302 1.16696 405.303
295 1 -47.5772 1.16464 407.17 -47.5772 1.16464 407.17
300 1 -44.9556 3.38238 404.381 -44.9556 3.38238 404.381
306 1 -41.6949 1.90434 403.936 -41.6949 1.90434 403.936
302 1 -43.439 1.90258 405.801 -43.439 1.90258 405.801
304 1 -42.5619 4.11948 404.871 -42.5619 4.11948 404.871
301 1 -44.3113 4.11675 406.737 -44.3113 4.11675 406.737
305 1 -41.9206 0.425841 407.234 -41.9206 0.425841 407.234
307 1 -41.0486 2.64026 406.301 -41.0486 2.64026 406.301
310 1 -39.3021 2.64443 404.441 -39.3021 2.64443 404.441
312 1 -37.7849 1.16483 405.862 -37.7849 1.16483 405.862
311 1 -38.6566 3.3785 406.799 -38.6566 3.3785 406.799
308 1 -40.1749 0.428224 405.365 -40.1749 0.428224 405.365
313 1 -36.9084 3.38184 404.932 -36.9084 3.38184 404.932
315 1 -36.0414 1.16651 403.998 -36.0414 1.16651 403.998
316 1 -35.3947 1.90268 406.363 -35.3947 1.90268 406.363
317 1 -34.5211 4.11802 405.426 -34.5211 4.11802 405.426
314 1 -36.2663 4.11559 407.296 -36.2663 4.11559 407.296
319 1 -33.6483 1.90664 404.503 -33.6483 1.90664 404.503
320 1 -33.0025 2.64092 406.861 -33.0025 2.64092 406.861
324 1 -30.3873 0.428694 404.06 -30.3873 0.428694 404.06
321 1 -32.1309 0.427159 405.924 -32.1309 0.427159 405.924
322 1 -31.2544 2.64408 404.994 -31.2544 2.64408 404.994
323 1 -30.6122 3.37798 407.358 -30.6122 3.37798 407.358
325 1 -29.7406 1.165 406.426 -29.7406 1.165 406.426
328 1 -27.9941 1.16885 404.566 -27.9941 1.16885 404.566
326 1 -28.8669 3.38028 405.489 -28.8669 3.38028 405.489
329 1 -27.3483 1.90321 406.924 -27.3483 1.90321 406.924
330 1 -26.4766 4.11686 405.987 -26.4766 4.11686 405.987
331 1 -25.6001 1.90629 405.057 -25.6001 1.90629 405.057
337 1 -22.3396 0.430948 404.628 -22.3396 0.430948 404.628
334 1 -24.0862 0.4272 406.488 -24.0862 0.4272 406.488
335 1 -23.2125 2.64242 405.551 -23.2125 2.64242 405.551
333 1 -24.733 4.11831 404.123 -24.733 4.11831 404.123
338 1 -21.6937 1.16526 406.986 -21.6937 1.16526 406.986
332 1 -24.9578 2.64021 407.42 -24.9578 2.64021 407.42
340 1 -19.9454 1.16822 405.119 -19.9454 1.16822 405.119
342 1 -19.0785 3.38012 404.184 -19.0785 3.38012 404.184
339 1 -20.8221 3.37883 406.049 -20.8221 3.37883 406.049
344 1 -17.5572 1.9035 405.611 -17.5572 1.9035 405.611
343 1 -18.4317 4.116 406.549 -18.4317 4.116 406.549
341 1 -19.3032 1.90183 407.482 -19.3032 1.90183 407.482
347 1 -16.0418 0.427134 407.05 -16.0418 0.427134 407.05
349 1 -15.1699 2.64074 406.112 -15.1699 2.64074 406.112
346 1 -16.6847 4.11896 404.688 -16.6847 4.11896 404.688
350 1 -14.2965 0.430281 405.185 -14.2965 0.430281 405.185
351 1 -13.6522 1.16683 407.548 -13.6522 1.16683 407.548
353 1 -12.7802 3.38211 406.614 -12.7802 3.38211 406.614
352 1 -13.428 2.64272 404.247 -13.428 2.64272 404.247
354 1 -11.908 1.17174 405.682 -11.908 1.17174 405.682
356 1 -11.033 3.38888 404.753 -11.033 3.38888 404.753
358 1 -10.1637 1.17343 403.82 -10.1637 1.17343 403.82
357 1 -10.3892 4.12143 407.115 -10.3892 4.12143 407.115
363 1 -7.12351 2.64574 406.682 -7.12351 2.64574 406.682
359 1 -9.51689 1.9087 406.184 -9.51689 1.9087 406.184
362 1 -7.7685 1.91117 404.326 -7.7685 1.91117 404.326
360 1 -8.64287 4.12342 405.248 -8.64287 4.12342 405.248
364 1 -6.25133 0.431428 405.746 -6.25133 0.431428 405.746
368 1 -4.50755 0.432902 403.882 -4.50755 0.432902 403.882
366 1 -5.37445 2.64818 404.816 -5.37445 2.64818 404.816
369 1 -3.8608 1.16898 406.247 -3.8608 1.16898 406.247
367 1 -4.73254 3.38213 407.179 -4.73254 3.38213 407.179
370 1 -2.98721 3.38429 405.31 -2.98721 3.38429 405.31
372 1 -2.11458 1.17295 404.386 -2.11458 1.17295 404.386
376 1 0.279188 1.91026 404.877 0.279188 1.91026 404.877
373 1 -1.46862 1.90711 406.744 -1.46862 1.90711 406.744
374 1 -0.597101 4.12079 405.807 -0.597101 4.12079 405.807
379 1 1.79311 0.431065 406.308 1.79311 0.431065 406.308
378 1 1.14609 4.12231 403.943 1.14609 4.12231 403.943
377 1 0.921685 2.64406 407.241 0.921685 2.64406 407.241
383 1 4.18532 1.16913 406.806 4.18532 1.16913 406.806
380 1 2.66656 2.64632 405.371 2.66656 2.64632 405.371
382 1 3.53926 0.434848 404.448 3.53926 0.434848 404.448
384 1 5.05682 3.38273 405.869 5.05682 3.38273 405.869
385 1 5.93315 1.17211 404.939 5.93315 1.17211 404.939
387 1 6.80008 3.38409 404.005 6.80008 3.38409 404.005
388 1 7.44716 4.12036 406.37 7.44716 4.12036 406.37
386 1 6.57572 1.90599 407.302 6.57572 1.90599 407.302
389 1 8.32062 1.90808 405.433 8.32062 1.90808 405.433
391 1 9.19333 4.12399 404.51 9.19333 4.12399 404.51
392 1 9.83949 0.430848 406.868 9.83949 0.430848 406.868
393 1 10.711 2.64437 405.931 10.711 2.64437 405.931
394 1 11.5873 0.433676 405.001 11.5873 0.433676 405.001
396 1 12.4542 2.64559 404.066 12.4542 2.64559 404.066
397 1 13.1015 3.38184 406.431 13.1015 3.38184 406.431
395 1 12.23 1.16755 407.364 12.23 1.16755 407.364
398 1 13.9749 1.16949 405.494 13.9749 1.16949 405.494
400 1 14.8476 3.38532 404.571 14.8476 3.38532 404.571
401 1 15.494 4.1196 406.929 15.494 4.1196 406.929
402 1 16.3655 1.90558 405.992 16.3655 1.90558 405.992
403 1 17.2418 4.12226 405.061 17.2418 4.12226 405.061
405 1 18.1087 1.90663 404.127 18.1087 1.90663 404.127
406 1 18.7562 2.64281 406.492 18.7562 2.64281 406.492
409 1 20.5024 2.6461 404.632 20.5024 2.6461 404.632
410 1 21.1489 3.38023 406.989 21.1489 3.38023 406.989
407 1 19.6296 0.430351 405.555 19.6296 0.430351 405.555
404 1 17.8847 0.428602 407.425 17.8847 0.428602 407.425
412 1 22.897 3.38267 405.121 22.897 3.38267 405.121
411 1 22.0204 1.16608 406.052 22.0204 1.16608 406.052
415 1 24.4113 1.90252 406.551 24.4113 1.90252 406.551
414 1 23.7637 1.16686 404.186 23.7637 1.16686 404.186
416 1 25.2857 4.11719 405.613 25.2857 4.11719 405.613
413 1 23.5399 4.11607 407.484 23.5399 4.11607 407.484
418 1 26.158 1.90491 404.689 26.158 1.90491 404.689
419 1 26.8017 2.64029 407.05 26.8017 2.64029 407.05
420 1 27.0293 4.1112 403.738 27.0293 4.1112 403.738
421 1 27.6735 0.426125 406.112 27.6735 0.426125 406.112
422 1 28.5468 2.64283 405.185 28.5468 2.64283 405.185
424 1 29.4152 0.427482 404.247 29.4152 0.427482 404.247
426 1 30.9359 3.38343 405.681 30.9359 3.38343 405.681
425 1 30.0638 1.16664 406.613 30.0638 1.16664 406.613
430 1 32.68 3.38448 403.819 32.68 3.38448 403.819
428 1 31.8108 1.17281 404.752 31.8108 1.17281 404.752
429 1 32.4555 1.90511 407.113 32.4555 1.90511 407.113
432 1 34.2017 1.90649 405.245 34.2017 1.90649 405.245
431 1 33.3277 4.11953 406.181 33.3277 4.11953 406.181
435 1 35.7219 0.428261 406.679 35.7219 0.428261 406.679
436 1 36.594 2.64109 405.742 36.594 2.64109 405.742
434 1 35.076 4.12139 404.323 35.076 4.12139 404.323
440 1 38.3377 2.64194 403.877 38.3377 2.64194 403.877
438 1 37.4709 0.430094 404.812 37.4709 0.430094 404.812
439 1 38.1137 1.16381 407.174 38.1137 1.16381 407.174
442 1 39.859 1.16541 405.304 39.859 1.16541 405.304
441 1 38.9854 3.37783 406.241 38.9854 3.37783 406.241
444 1 40.7316 3.38123 404.381 40.7316 3.38123 404.381
446 1 42.25 1.90114 405.8 42.25 1.90114 405.8
445 1 41.3785 4.11519 406.738 41.3785 4.11519 406.738
450 1 43.9931 1.9021 403.936 43.9931 1.9021 403.936
451 1 44.6411 2.6382 406.3 44.6411 2.6382 406.3
448 1 43.1263 4.1178 404.87 43.1263 4.1178 404.87
449 1 43.7697 0.423989 407.233 43.7697 0.423989 407.233
452 1 45.5146 0.425773 405.363 45.5146 0.425773 405.363
454 1 46.3873 2.64151 404.44 46.3873 2.64151 404.44
457 1 48.7822 3.37823 404.929 48.7822 3.37823 404.929
455 1 47.0343 3.37569 406.797 47.0343 3.37569 406.797
456 1 47.9058 1.16161 405.86 47.9058 1.16161 405.86
459 1 49.6491 1.16251 403.995 49.6491 1.16251 403.995
458 1 49.4256 4.11206 407.292 49.4256 4.11206 407.292
460 1 50.297 1.8988 406.36 50.297 1.8988 406.36
463 1 52.0434 1.90209 404.499 52.0434 1.90209 404.499
461 1 51.1706 4.11381 405.423 51.1706 4.11381 405.423
464 1 52.6903 2.63643 406.856 52.6903 2.63643 406.856
465 1 53.5618 0.422345 405.919 53.5618 0.422345 405.919
468 1 55.3052 0.42325 404.055 55.3052 0.42325 404.055
466 1 54.4382 2.63896 404.989 54.4382 2.63896 404.989
469 1 55.9531 1.15967 406.419 55.9531 1.15967 406.419
467 1 55.0816 3.37293 407.352 55.0816 3.37293 407.352
470 1 56.8267 3.37468 405.483 56.8267 3.37468 405.483
472 1 57.6995 1.16296 404.559 57.6995 1.16296 404.559
475 1 60.0944 1.89996 405.049 60.0944 1.89996 405.049
473 1 58.3464 1.89743 406.917 58.3464 1.89743 406.917
474 1 59.218 4.11079 405.98 59.218 4.11079 405.98
477 1 60.9614 4.1117 404.115 60.9614 4.1117 404.115
481 1 63.3557 0.424055 404.62 63.3557 0.424055 404.62
478 1 61.6093 0.420771 406.48 61.6093 0.420771 406.48
479 1 62.4828 2.63577 405.543 62.4828 2.63577 405.543
482 1 64.0025 1.15861 406.977 64.0025 1.15861 406.977
476 1 60.7377 2.63404 407.412 60.7377 2.63404 407.412
483 1 64.8742 3.37196 406.04 64.8742 3.37196 406.04
486 1 66.6176 3.37284 404.175 66.6176 3.37284 404.175
488 1 68.1391 1.89693 405.603 68.1391 1.89693 405.603
484 1 65.7506 1.16111 405.11 65.7506 1.16111 405.11
487 1 67.2655 4.10941 406.54 67.2655 4.10941 406.54
485 1 66.3939 1.89525 407.473 66.3939 1.89525 407.473
490 1 69.012 4.11264 404.68 69.012 4.11264 404.68
493 1 70.5304 2.63301 406.1 70.5304 2.63301 406.1
491 1 69.6588 0.419723 407.037 69.6588 0.419723 407.037
494 1 71.4072 0.422139 405.17 71.4072 0.422139 405.17
492 1 69.8807 1.89205 403.732 69.8807 1.89205 403.732
496 1 72.274 2.63375 404.235 72.274 2.63375 404.235
497 1 72.9217 3.36991 406.6 72.9217 3.36991 406.6
500 1 74.6687 3.37235 404.738 74.6687 3.37235 404.738
498 1 73.7962 1.15714 405.662 73.7962 1.15714 405.662
502 1 75.5401 1.15118 403.787 75.5401 1.15118 403.787
501 1 75.3124 4.10823 407.099 75.3124 4.10823 407.099
503 1 76.1843 1.89408 406.162 76.1843 1.89408 406.162
506 1 77.9262 1.8955 404.297 77.9262 1.8955 404.297
507 1 78.5747 2.63522 406.663 78.5747 2.63522 406.663
504 1 77.0577 4.11081 405.234 77.0577 4.11081 405.234
508 1 79.4469 0.424577 405.731 79.4469 0.424577 405.731
510 1 80.322 2.64145 404.802 80.322 2.64145 404.802
512 1 81.1913 0.425704 403.869 81.1913 0.425704 403.869
514 1 82.7128 3.37576 405.297 82.7128 3.37576 405.297
516 1 83.5871 1.16322 404.375 83.5871 1.16322 404.375
513 1 81.8388 1.16134 406.232 81.8388 1.16134 406.232
511 1 80.9665 3.37437 407.164 80.9665 3.37437 407.164
517 1 84.2329 1.89822 406.73 84.2329 1.89822 406.73
523 1 87.4961 0.421011 406.295 87.4961 0.421011 406.295
520 1 85.9818 1.9 404.864 85.9818 1.9 404.864
518 1 85.105 4.11102 405.794 85.105 4.11102 405.794
522 1 86.8486 4.11186 403.93 86.8486 4.11186 403.93
521 1 86.6245 2.63452 407.227 86.6245 2.63452 407.227
526 1 89.242 0.424251 404.435 89.242 0.424251 404.435
528 1 90.7602 3.3724 405.855 90.7602 3.3724 405.855
524 1 88.3695 2.63596 405.358 88.3695 2.63596 405.358
529 1 91.6362 1.16141 404.925 91.6362 1.16141 404.925
527 1 89.8889 1.15916 406.792 89.8889 1.15916 406.792
536 1 95.5443 0.421692 406.854 95.5443 0.421692 406.854
531 1 92.5028 3.37299 403.991 92.5028 3.37299 403.991
533 1 94.024 1.89757 405.42 94.024 1.89757 405.42
532 1 93.1511 4.11034 406.356 93.1511 4.11034 406.356
535 1 94.8962 4.11292 404.497 94.8962 4.11292 404.497
530 1 92.28 1.89639 407.288 92.28 1.89639 407.288
538 1 97.2908 0.423227 404.988 97.2908 0.423227 404.988
541 1 98.8068 3.37448 406.418 98.8068 3.37448 406.418
540 1 98.1567 2.63416 404.054 98.1567 2.63416 404.054
537 1 96.4151 2.63465 405.917 96.4151 2.63465 405.917
539 1 97.9362 1.16037 407.35 97.9362 1.16037 407.35
546 1 102.078 1.90094 405.973 102.078 1.90094 405.973
544 1 100.55 3.37728 404.561 100.55 3.37728 404.561
542 1 99.6791 1.1619 405.483 99.6791 1.1619 405.483
547 1 102.953 4.1178 405.043 102.953 4.1178 405.043
545 1 101.205 4.11461 406.911 101.205 4.11461 406.911
553 1 106.217 2.63827 404.597 106.217 2.63827 404.597
550 1 104.471 2.63656 406.467 104.471 2.63656 406.467
554 1 106.863 3.37485 406.959 106.863 3.37485 406.959
549 1 103.826 1.90238 404.103 103.826 1.90238 404.103
551 1 105.345 0.423701 405.529 105.345 0.423701 405.529
548 1 103.599 0.422788 407.402 103.599 0.422788 407.402
560 1 -61.5126 0.422421 409.824 -61.5126 0.422421 409.824
558 1 -63.0295 1.89852 408.392 -63.0295 1.89852 408.392
562 1 -60.6408 2.63904 408.89 -60.6408 2.63904 408.89
559 1 -62.3845 2.63383 410.758 -62.3845 2.63383 410.758
556 1 -63.9017 4.11017 409.327 -63.9017 4.11017 409.327
273 1 -59.7697 0.428633 407.957 -59.7697 0.428633 407.957
565 1 -58.2504 3.37715 409.39 -58.2504 3.37715 409.39
568 1 -56.7321 1.89891 410.824 -56.7321 1.89891 410.824
567 1 -57.3771 1.16478 408.459 -57.3771 1.16478 408.459
564 1 -59.123 1.16142 410.324 -59.123 1.16142 410.324
563 1 -59.995 3.37287 411.257 -59.995 3.37287 411.257
573 1 -53.4657 0.422204 410.395 -53.4657 0.422204 410.395
571 1 -54.9836 1.89946 408.963 -54.9836 1.89946 408.963
283 1 -54.1076 4.1119 408.031 -54.1076 4.1119 408.031
569 1 -55.8584 4.11327 409.892 -55.8584 4.11327 409.892
574 1 -52.5906 2.63608 409.465 -52.5906 2.63608 409.465
572 1 -54.3401 2.63579 411.326 -54.3401 2.63579 411.326
576 1 -51.7158 0.422089 408.533 -51.7158 0.422089 408.533
578 1 -50.1988 3.37394 409.965 -50.1988 3.37394 409.965
289 1 -50.841 2.63736 407.603 -50.841 2.63736 407.603
580 1 -49.3247 1.16105 409.034 -49.3247 1.16105 409.034
577 1 -51.0734 1.15947 410.896 -51.0734 1.15947 410.896
293 1 -48.451 3.37649 408.102 -48.451 3.37649 408.102
299 1 -45.1858 1.90147 407.667 -45.1858 1.90147 407.667
583 1 -46.9331 1.89919 409.533 -46.9331 1.89919 409.533
585 1 -46.0595 4.11413 408.601 -46.0595 4.11413 408.601
582 1 -47.8071 4.11178 410.465 -47.8071 4.11178 410.465
586 1 -45.4155 0.421645 410.964 -45.4155 0.421645 410.964
589 1 -43.668 0.423751 409.099 -43.668 0.423751 409.099
591 1 -42.1505 3.37341 410.529 -42.1505 3.37341 410.529
303 1 -42.7948 2.63809 408.166 -42.7948 2.63809 408.166
587 1 -44.5418 2.63632 410.031 -44.5418 2.63632 410.031
592 1 -41.2767 1.16078 409.597 -41.2767 1.16078 409.597
309 1 -39.5301 1.16293 407.73 -39.5301 1.16293 407.73
594 1 -40.4035 3.3755 408.664 -40.4035 3.3755 408.664