ITEM: TIMESTEP
0
ITEM: NUMBER OF ATOMS
4630
ITEM: BOX BOUNDS xy xz yz pp pp pp
-6.3423474134453443e+01 1.0644250598265344e+02 0.0000000000000000e+00
0.0000000000000000e+00 4.4274527100805940e+00 0.0000000000000000e+00
3.8000000000000000e+02 5.0000000000000000e+02 0.0000000000000000e+00
ITEM: ATOMS id type x y z xu yu zu
7 1 -59.1726 2.81435 399.007 -59.1726 2.81435 399.007
27 1 -45.6719 2.10836 399.55 -45.6719 2.10836 399.55
36 1 -40.0617 1.3669 399.608 -40.0617 1.3669 399.608
45 1 -34.4549 0.627582 399.669 -34.4549 0.627582 399.669
85 1 -8.80174 0.631338 399.495 -8.80174 0.631338 399.495
94 1 -3.19177 4.31777 399.556 -3.19177 4.31777 399.556
103 1 2.41382 3.57916 399.62 2.41382 3.57916 399.62
112 1 8.01823 2.84099 399.685 8.01823 2.84099 399.685
152 1 33.6571 2.84713 399.513 33.6571 2.84713 399.513
161 1 39.2647 2.10565 399.571 39.2647 2.10565 399.571
170 1 44.8687 1.36639 399.633 44.8687 1.36639 399.633
227 1 81.7147 4.3207 399.565 81.7147 4.3207 399.565
236 1 87.3231 3.57938 399.62 87.3231 3.57938 399.62
245 1 92.9275 2.84006 399.679 92.9275 2.84006 399.679
5 1 -60.0758 0.599241 399.805 -60.0758 0.599241 399.805
2 1 -61.8625 0.61381 401.587 -61.8625 0.61381 401.587
3 1 -60.9948 2.82563 400.69 -60.9948 2.82563 400.69
1 1 -62.712 2.79907 402.529 107.154 2.79907 402.529
4 1 -60.3438 3.55169 403.022 -60.3438 3.55169 403.022
9 1 -57.6917 1.27326 400.267 -57.6917 1.27326 400.267
8 1 -58.567 3.52873 401.225 -58.567 3.52873 401.225
10 1 -57.0795 2.04032 402.621 -57.0795 2.04032 402.621
6 1 -59.4648 1.33542 402.098 -59.4648 1.33542 402.098
11 1 -56.2195 4.26188 401.699 -56.2195 4.26188 401.699
12 1 -55.3563 2.08445 400.75 -55.3563 2.08445 400.75
16 1 -52.9771 2.78097 401.212 -52.9771 2.78097 401.212
15 1 -53.8464 0.581506 402.197 -53.8464 0.581506 402.197
14 1 -54.5056 4.31427 399.914 -54.5056 4.31427 399.914
17 1 -52.1166 0.582565 400.356 -52.1166 0.582565 400.356
13 1 -54.706 2.786 403.1 -54.706 2.786 403.1
22 1 -48.8721 3.55522 399.957 -48.8721 3.55522 399.957
20 1 -49.7498 1.33335 400.803 -49.7498 1.33335 400.803
19 1 -50.6255 3.52433 401.732 -50.6255 3.52433 401.732
18 1 -51.4767 1.30948 402.679 -51.4767 1.30948 402.679
21 1 -49.1211 2.05748 403.171 -49.1211 2.05748 403.171
23 1 -48.253 4.279 402.259 -48.253 4.279 402.259
26 1 -45.8749 0.585512 402.728 -45.8749 0.585512 402.728
24 1 -47.3996 2.06307 401.321 -47.3996 2.06307 401.321
28 1 -45.0135 2.80413 401.828 -45.0135 2.80413 401.828
25 1 -46.5222 4.30648 400.388 -46.5222 4.30648 400.388
29 1 -44.1416 0.574488 400.844 -44.1416 0.574488 400.844
31 1 -43.2796 2.80322 399.989 -43.2796 2.80322 399.989
34 1 -40.9168 3.56526 400.443 -40.9168 3.56526 400.443
32 1 -42.6412 3.53435 402.314 -42.6412 3.53435 402.314
33 1 -41.7952 1.32369 401.375 -41.7952 1.32369 401.375
30 1 -43.5134 1.31362 403.229 -43.5134 1.31362 403.229
35 1 -40.2684 4.27371 402.785 -40.2684 4.27371 402.785
40 1 -37.6715 2.06312 400.049 -37.6715 2.06312 400.049
37 1 -39.408 2.06465 401.887 -39.408 2.06465 401.887
41 1 -37.0352 2.79496 402.374 -37.0352 2.79496 402.374
38 1 -38.5348 4.26156 400.903 -38.5348 4.26156 400.903
39 1 -37.9077 0.574626 403.289 -37.9077 0.574626 403.289
43 1 -35.3098 2.82591 400.504 -35.3098 2.82591 400.504
42 1 -36.1886 0.584141 401.436 -36.1886 0.584141 401.436
44 1 -34.6623 3.53447 402.847 -34.6623 3.53447 402.847
46 1 -33.8016 1.32538 401.949 -33.8016 1.32538 401.949
47 1 -32.9282 3.52239 400.965 -32.9282 3.52239 400.965
49 1 -32.0649 1.32394 400.111 -32.0649 1.32394 400.111
52 1 -29.7034 2.08682 400.567 -29.7034 2.08682 400.567
50 1 -31.429 2.05581 402.437 -31.429 2.05581 402.437
51 1 -30.5822 4.27248 401.499 -30.5822 4.27248 401.499
53 1 -29.0562 2.79531 402.91 -29.0562 2.79531 402.91
54 1 -28.8486 4.31593 399.732 -28.8486 4.31593 399.732
48 1 -32.3017 4.26294 403.351 -32.3017 4.26294 403.351
58 1 -26.4587 0.584776 400.174 -26.4587 0.584776 400.174
59 1 -25.823 1.31662 402.5 -25.823 1.31662 402.5
56 1 -27.322 2.78325 401.028 -27.322 2.78325 401.028
55 1 -28.1955 0.586214 402.011 -28.1955 0.586214 402.011
60 1 -24.9763 3.53331 401.562 -24.9763 3.53331 401.562
57 1 -26.6957 3.52378 403.414 -26.6957 3.52378 403.414
61 1 -24.0975 1.34764 400.63 -24.0975 1.34764 400.63
63 1 -23.2428 3.57674 399.795 -23.2428 3.57674 399.795
62 1 -23.4504 2.05602 402.973 -23.4504 2.05602 402.973
64 1 -22.5896 4.27434 402.075 -22.5896 4.27434 402.075
65 1 -21.7163 2.04387 401.091 -21.7163 2.04387 401.091
66 1 -21.09 2.78435 403.478 -21.09 2.78435 403.478
70 1 -18.4919 0.607899 400.693 -18.4919 0.607899 400.693
68 1 -20.2172 0.577143 402.563 -20.2172 0.577143 402.563
69 1 -19.3709 2.79362 401.625 -19.3709 2.79362 401.625
67 1 -20.853 4.27283 400.237 -20.853 4.27283 400.237
72 1 -17.6388 2.83669 399.857 -17.6388 2.83669 399.857
71 1 -17.8441 1.31642 403.035 -17.8441 1.31642 403.035
75 1 -15.2499 3.53347 400.298 -15.2499 3.53347 400.298
74 1 -16.1105 1.30464 401.153 -16.1105 1.30464 401.153
73 1 -16.9846 3.5345 402.137 -16.9846 3.5345 402.137
76 1 -14.6109 4.26118 402.621 -14.6109 4.26118 402.621
77 1 -13.758 2.04795 401.674 -13.758 2.04795 401.674
348 1 -15.4812 2.04254 403.536 -15.4812 2.04254 403.536
80 1 -12.0026 2.07844 399.901 -12.0026 2.07844 399.901
81 1 -11.3848 2.80249 402.202 -11.3848 2.80249 402.202
78 1 -12.8819 4.28403 400.746 -12.8819 4.28403 400.746
79 1 -12.2538 0.581311 403.114 -12.2538 0.581311 403.114
83 1 -9.65262 2.82948 400.333 -9.65262 2.82948 400.333
82 1 -10.5309 0.586151 401.266 -10.5309 0.586151 401.266
87 1 -7.27203 3.52509 400.79 -7.27203 3.52509 400.79
84 1 -9.00641 3.5364 402.673 -9.00641 3.5364 402.673
86 1 -8.14454 1.32738 401.774 -8.14454 1.32738 401.774
89 1 -6.40959 1.32636 399.936 -6.40959 1.32636 399.936
90 1 -5.77226 2.05769 402.261 -5.77226 2.05769 402.261
88 1 -6.64497 4.26451 403.176 -6.64497 4.26451 403.176
92 1 -4.04713 2.08866 400.391 -4.04713 2.08866 400.391
93 1 -3.39976 2.79717 402.733 -3.39976 2.79717 402.733
91 1 -4.92589 4.2745 401.323 -4.92589 4.2745 401.323
96 1 -1.66545 2.78513 400.852 -1.66545 2.78513 400.852
95 1 -2.53907 0.588129 401.836 -2.53907 0.588129 401.836
98 1 -0.801953 0.586707 399.999 -0.801953 0.586707 399.999
100 1 0.680099 3.53551 401.387 0.680099 3.53551 401.387
99 1 -0.166754 1.3187 402.324 -0.166754 1.3187 402.324
97 1 -1.03953 3.52574 403.239 -1.03953 3.52574 403.239
101 1 1.55906 1.35 400.455 1.55906 1.35 400.455
102 1 2.20558 2.0584 402.798 2.20558 2.0584 402.798
105 1 3.94005 2.04669 400.917 3.94005 2.04669 400.917
104 1 3.06635 4.27689 401.9 3.06635 4.27689 401.9
108 1 5.43817 0.580257 402.389 5.43817 0.580257 402.389
107 1 4.80333 4.27573 400.063 4.80333 4.27573 400.063
106 1 4.56544 2.78721 403.304 4.56544 2.78721 403.304
110 1 7.16381 0.611827 400.52 7.16381 0.611827 400.52
111 1 7.81016 1.31999 402.863 7.81016 1.31999 402.863
109 1 6.285 2.79723 401.452 6.285 2.79723 401.452
113 1 8.67081 3.53857 401.965 8.67081 3.53857 401.965
114 1 9.54442 1.30848 400.982 9.54442 1.30848 400.982
116 1 10.4075 3.53752 400.128 10.4075 3.53752 400.128
118 1 11.889 2.05904 401.517 11.889 2.05904 401.517
117 1 11.0423 4.26942 402.455 11.0423 4.26942 402.455
121 1 13.6216 2.10283 399.75 13.6216 2.10283 399.75
120 1 13.414 0.581628 402.929 13.414 0.581628 402.929
119 1 12.7676 4.30113 400.585 12.7676 4.30113 400.585
115 1 10.1697 2.04886 403.369 10.1697 2.04886 403.369
122 1 14.2744 2.80023 402.03 14.2744 2.80023 402.03
123 1 15.1479 0.570216 401.047 15.1479 0.570216 401.047
125 1 16.0108 2.79923 400.193 16.0108 2.79923 400.193
126 1 16.6456 3.53102 402.519 16.6456 3.53102 402.519
127 1 17.4922 1.32068 401.582 17.4922 1.32068 401.582
124 1 15.7732 1.31044 403.434 15.7732 1.31044 403.434
130 1 19.2242 1.36444 399.814 19.2242 1.36444 399.814
128 1 18.3705 3.56276 400.65 18.3705 3.56276 400.65
129 1 19.0172 4.27047 402.993 19.0172 4.27047 402.993
131 1 19.8775 2.0616 402.095 19.8775 2.0616 402.095
132 1 20.7506 4.25898 401.111 20.7506 4.25898 401.111
133 1 21.3763 0.571596 403.499 21.3763 0.571596 403.499
134 1 21.6133 2.06052 400.257 21.6133 2.06052 400.257
136 1 23.0945 0.581535 401.646 23.0945 0.581535 401.646
135 1 22.2486 2.79212 402.583 22.2486 2.79212 402.583
139 1 24.8248 0.624888 399.876 24.8248 0.624888 399.876
137 1 23.973 2.82355 400.713 23.973 2.82355 400.713
138 1 24.6206 3.53131 403.056 24.6206 3.53131 403.056
141 1 26.3532 3.52015 401.173 26.3532 3.52015 401.173
140 1 25.4796 1.32218 402.157 25.4796 1.32218 402.157
142 1 27.2132 1.32153 400.318 27.2132 1.32153 400.318
143 1 27.8521 2.0489 402.641 27.8521 2.0489 402.641
144 1 28.7045 4.26344 401.694 28.7045 4.26344 401.694
145 1 29.58 2.07222 400.765 29.58 2.07222 400.765
147 1 30.4579 4.29401 399.919 30.4579 4.29401 399.919
146 1 30.2082 2.79642 403.134 30.2082 2.79642 403.134
150 1 32.8072 0.617839 400.352 32.8072 0.617839 400.352
148 1 31.0765 0.590369 402.222 31.0765 0.590369 402.222
149 1 31.9298 2.80186 401.285 31.9298 2.80186 401.285
153 1 34.3153 3.54263 401.792 34.3153 3.54263 401.792
151 1 33.4541 1.32403 402.691 33.4541 1.32403 402.691
156 1 36.0489 3.54181 399.953 36.0489 3.54181 399.953
154 1 35.1871 1.31312 400.807 35.1871 1.31312 400.807
157 1 36.6868 4.27278 402.278 36.6868 4.27278 402.278
155 1 35.8148 2.05198 403.194 35.8148 2.05198 403.194
158 1 37.5325 2.06232 401.34 37.5325 2.06232 401.34
159 1 38.4106 4.30403 400.407 38.4106 4.30403 400.407
162 1 39.9187 2.80294 401.851 39.9187 2.80294 401.851
160 1 39.0587 0.584424 402.75 39.0587 0.584424 402.75
163 1 40.7917 0.572683 400.867 40.7917 0.572683 400.867
165 1 41.6544 2.80168 400.013 41.6544 2.80168 400.013
164 1 41.4185 1.31274 403.254 41.4185 1.31274 403.254
168 1 44.015 3.56474 400.468 44.015 3.56474 400.468
167 1 43.1367 1.32275 401.401 43.1367 1.32275 401.401
166 1 42.2905 3.53326 402.339 42.2905 3.53326 402.339
169 1 44.6626 4.27256 402.811 44.6626 4.27256 402.811
171 1 45.5226 2.06367 401.912 45.5226 2.06367 401.912
174 1 47.2582 2.0626 400.074 47.2582 2.0626 400.074
175 1 47.8942 2.79418 402.4 47.8942 2.79418 402.4
172 1 46.3956 4.26104 400.929 46.3956 4.26104 400.929
173 1 47.0222 0.573603 403.316 47.0222 0.573603 403.316
177 1 49.6185 2.82582 400.53 49.6185 2.82582 400.53
176 1 48.7404 0.583778 401.462 48.7404 0.583778 401.462
179 1 50.472 0.627491 399.694 50.472 0.627491 399.694
181 1 51.999 3.52214 400.99 51.999 3.52214 400.99
178 1 50.2662 3.53355 402.873 50.2662 3.53355 402.873
180 1 51.1261 1.32471 401.974 51.1261 1.32471 401.974
183 1 52.8615 1.32371 400.136 52.8615 1.32371 400.136
184 1 53.4976 2.05528 402.462 53.4976 2.05528 402.462
186 1 55.2217 2.08699 400.591 55.2217 2.08699 400.591
187 1 55.8695 2.79466 402.934 55.8695 2.79466 402.934
188 1 56.0751 4.31611 399.755 56.0751 4.31611 399.755
185 1 54.3437 4.27237 401.524 54.3437 4.27237 401.524
182 1 52.6257 4.26211 403.377 52.6257 4.26211 403.377
189 1 56.7294 0.585838 402.035 56.7294 0.585838 402.035
192 1 58.4645 0.584864 400.196 58.4645 0.584864 400.196
194 1 59.9468 3.53353 401.585 59.9468 3.53353 401.585
193 1 59.1008 1.31642 402.522 59.1008 1.31642 402.522
190 1 57.6022 2.7833 401.051 57.6022 2.7833 401.051
191 1 58.229 3.52324 403.438 58.229 3.52324 403.438
195 1 60.8247 1.34816 400.652 60.8247 1.34816 400.652
197 1 61.6779 3.57727 399.815 61.6779 3.57727 399.815
199 1 63.2051 2.04443 401.111 63.2051 2.04443 401.111
196 1 61.4727 2.05578 402.995 61.4727 2.05578 402.995
198 1 62.3324 4.27441 402.095 62.3324 4.27441 402.095
200 1 63.8321 2.78435 403.498 63.8321 2.78435 403.498
202 1 64.7038 0.577511 402.583 64.7038 0.577511 402.583
201 1 64.0673 4.27342 400.257 64.0673 4.27342 400.257
206 1 67.2804 2.83833 399.875 67.2804 2.83833 399.875
204 1 66.4274 0.609216 400.712 66.4274 0.609216 400.712
203 1 65.5497 2.79462 401.645 65.5497 2.79462 401.645
205 1 67.0757 1.31677 403.055 67.0757 1.31677 403.055
207 1 67.9354 3.53537 402.155 67.9354 3.53537 402.155
209 1 69.6699 3.53427 400.316 69.6699 3.53427 400.316
208 1 68.8078 1.30529 401.171 68.8078 1.30529 401.171
211 1 71.1522 2.05514 401.704 71.1522 2.05514 401.704
210 1 70.307 4.26575 402.642 70.307 4.26575 402.642
212 1 72.0301 4.29712 400.771 72.0301 4.29712 400.771
214 1 72.8815 2.09846 399.934 72.8815 2.09846 399.934
217 1 75.2703 2.7951 400.373 75.2703 2.7951 400.373
216 1 74.4108 0.566259 401.229 74.4108 0.566259 401.229
215 1 73.5378 2.79577 402.213 73.5378 2.79577 402.213
213 1 72.6794 0.577447 403.113 72.6794 0.577447 403.113
218 1 75.9108 3.52249 402.696 75.9108 3.52249 402.696
220 1 77.6376 3.54578 400.819 77.6376 3.54578 400.819
219 1 76.7627 1.30955 401.749 76.7627 1.30955 401.749
222 1 78.5153 1.34014 399.973 78.5153 1.34014 399.973
223 1 79.1353 2.064 402.275 79.1353 2.064 402.275
221 1 78.2674 4.27005 403.187 78.2674 4.27005 403.187
224 1 79.9881 4.27543 401.337 79.9881 4.27543 401.337
225 1 80.8651 2.0914 400.404 80.8651 2.0914 400.404
229 1 83.2455 2.78679 400.858 83.2455 2.78679 400.858
228 1 82.3741 0.588903 401.843 82.3741 0.588903 401.843
226 1 81.5133 2.79777 402.743 81.5133 2.79777 402.743
231 1 84.1069 0.588051 400.003 84.1069 0.588051 400.003
234 1 86.469 1.35031 400.456 86.469 1.35031 400.456
233 1 85.5914 3.53608 401.389 85.5914 3.53608 401.389
235 1 87.1184 2.05838 402.798 87.1184 2.05838 402.798
232 1 84.7461 1.31914 402.328 84.7461 1.31914 402.328
230 1 83.8745 3.52583 403.244 83.8745 3.52583 403.244
241 1 90.3502 0.579738 402.386 90.3502 0.579738 402.386
238 1 88.8505 2.04648 400.915 88.8505 2.04648 400.915
240 1 89.713 4.27545 400.061 89.713 4.27545 400.061
237 1 87.978 4.27683 401.9 87.978 4.27683 401.9
239 1 89.4785 2.7868 403.302 89.4785 2.7868 403.302
242 1 91.196 2.79655 401.448 91.196 2.79655 401.448
243 1 92.0738 0.610961 400.515 92.0738 0.610961 400.515
247 1 94.4546 1.30692 400.975 94.4546 1.30692 400.975
246 1 93.5821 3.53734 401.959 93.5821 3.53734 401.959
244 1 92.7224 1.31902 402.858 92.7224 1.31902 402.858
254 1 98.5289 2.09834 399.74 98.5289 2.09834 399.74
249 1 95.3171 3.5358 400.121 95.3171 3.5358 400.121
253 1 98.3262 0.579535 402.919 98.3262 0.579535 402.919
251 1 96.799 2.05644 401.509 96.799 2.05644 401.509
252 1 97.6774 4.29763 400.576 97.6774 4.29763 400.576
250 1 95.9538 4.26761 402.447 95.9538 4.26761 402.447
248 1 95.0822 2.04757 403.362 95.0822 2.04757 403.362
258 1 100.917 2.79135 400.181 100.917 2.79135 400.181
255 1 99.1845 2.79674 402.02 99.1845 2.79674 402.02
259 1 101.553 3.53288 402.512 101.553 3.53288 402.512
260 1 102.396 1.32433 401.584 102.396 1.32433 401.584
256 1 100.058 0.565146 401.036 100.058 0.565146 401.036
257 1 100.684 1.31244 403.427 100.684 1.31244 403.427
263 1 104.102 1.35907 399.827 104.102 1.35907 399.827
261 1 103.258 3.56711 400.647 103.258 3.56711 400.647
264 1 104.809 2.06071 402.056 104.809 2.06071 402.056
265 1 105.654 4.25733 401.098 105.654 4.25733 401.098
262 1 103.936 4.27186 402.971 103.936 4.27186 402.971
266 1 106.3 0.570671 403.474 106.3 0.570671 403.474
268 1 -62.0604 3.52471 404.905 -62.0604 3.52471 404.905
271 1 -60.5569 2.04283 406.349 -60.5569 2.04283 406.349
270 1 -61.2014 1.32338 403.959 -61.2014 1.32338 403.959
267 1 -62.9215 1.3032 405.849 -62.9215 1.3032 405.849
272 1 -59.6973 4.26565 405.41 -59.6973 4.26565 405.41
269 1 -61.4193 4.24827 407.29 -61.4193 4.24827 407.29
277 1 -57.3214 0.569799 405.917 -57.3214 0.569799 405.917
274 1 -58.8323 2.05827 404.471 -58.8323 2.05827 404.471
278 1 -56.4492 2.78282 404.979 -56.4492 2.78282 404.979
275 1 -58.1868 2.77863 406.85 -58.1868 2.77863 406.85
276 1 -57.9613 4.27052 403.555 -57.9613 4.27052 403.555
279 1 -55.8135 3.50917 407.355 -55.8135 3.50917 407.355
280 1 -55.58 0.568859 404.051 -55.58 0.568859 404.051
286 1 -52.3463 3.51682 403.596 -52.3463 3.51682 403.596
282 1 -54.0763 3.51287 405.481 -54.0763 3.51287 405.481
284 1 -53.2086 1.30407 404.552 -53.2086 1.30407 404.552
281 1 -54.9458 1.29788 406.422 -54.9458 1.29788 406.422
285 1 -52.5742 2.03206 406.926 -52.5742 2.03206 406.926
291 1 -49.3398 0.561582 406.487 -49.3398 0.561582 406.487
288 1 -50.8432 2.04331 405.05 -50.8432 2.04331 405.05
292 1 -48.4754 2.78282 405.549 -48.4754 2.78282 405.549
287 1 -51.7089 4.24923 405.984 -51.7089 4.24923 405.984
290 1 -49.9827 4.26116 404.109 -49.9827 4.26116 404.109
294 1 -47.609 0.576629 404.613 -47.609 0.576629 404.613
297 1 -46.1052 3.51757 406.052 -46.1052 3.51757 406.052
296 1 -46.7475 2.79363 403.676 -46.7475 2.79363 403.676
298 1 -45.2397 1.30901 405.11 -45.2397 1.30901 405.11
295 1 -46.9696 1.29841 406.989 -46.9696 1.29841 406.989
300 1 -44.374 3.52858 404.181 -44.374 3.52858 404.181
306 1 -41.1406 2.05259 403.735 -41.1406 2.05259 403.735
302 1 -42.8689 2.04262 405.61 -42.8689 2.04262 405.61
304 1 -42.0003 4.26347 404.673 -42.0003 4.26347 404.673
301 1 -43.7328 4.25228 406.551 -43.7328 4.25228 406.551
305 1 -41.3626 0.559078 407.05 -41.3626 0.559078 407.05
307 1 -40.4987 2.77773 406.112 -40.4987 2.77773 406.112
310 1 -38.7684 2.78949 404.24 -38.7684 2.78949 404.24
312 1 -37.2632 1.30378 405.67 -37.2632 1.30378 405.67
311 1 -38.127 3.51316 406.612 -38.127 3.51316 406.612
308 1 -39.6331 0.569503 405.17 -39.6331 0.569503 405.17
313 1 -36.3948 3.52459 404.734 -36.3948 3.52459 404.734
315 1 -35.5348 1.31355 403.796 -35.5348 1.31355 403.796
316 1 -34.8931 2.03893 406.174 -34.8931 2.03893 406.174
317 1 -34.0274 4.25802 405.232 -34.0274 4.25802 405.232
314 1 -35.757 4.24773 407.111 -35.757 4.24773 407.111
319 1 -33.1625 2.05043 404.302 -33.1625 2.05043 404.302
320 1 -32.5214 2.77428 406.674 -32.5214 2.77428 406.674
324 1 -29.9288 0.574435 403.859 -29.9288 0.574435 403.859
321 1 -31.6574 0.564797 405.733 -31.6574 0.564797 405.733
322 1 -30.7889 2.78552 404.796 -30.7889 2.78552 404.796
323 1 -30.1514 3.50878 407.174 -30.1514 3.50878 407.174
325 1 -29.2874 1.2999 406.237 -29.2874 1.2999 406.237
328 1 -27.5566 1.31128 404.365 -27.5566 1.31128 404.365
326 1 -28.4216 3.51892 405.295 -28.4216 3.51892 405.295
329 1 -26.9156 2.0352 406.737 -26.9156 2.0352 406.737
330 1 -26.0516 4.25311 405.796 -26.0516 4.25311 405.796
331 1 -25.1831 2.04633 404.86 -25.1831 2.04633 404.86
337 1 -21.9507 0.571948 404.428 -21.9507 0.571948 404.428
334 1 -23.6816 0.560686 406.3 -23.6816 0.560686 406.3
335 1 -22.8158 2.77963 405.358 -22.8158 2.77963 405.358
333 1 -24.3229 4.26266 403.922 -24.3229 4.26266 403.922
338 1 -21.3098 1.29586 406.8 -21.3098 1.29586 406.8
332 1 -24.5457 2.76963 407.237 -24.5457 2.76963 407.237
340 1 -19.5771 1.30684 404.923 -19.5771 1.30684 404.923
342 1 -18.7172 3.52303 403.985 -18.7172 3.52303 403.985
339 1 -20.4458 3.51368 405.859 -20.4458 3.51368 405.859
344 1 -17.2091 2.0392 405.42 -17.2091 2.0392 405.42
343 1 -18.0758 4.24807 406.362 -18.0758 4.24807 406.362
341 1 -18.9398 2.02987 407.3 -18.9398 2.02987 407.3
347 1 -15.7067 0.556857 406.866 -15.7067 0.556857 406.866
349 1 -14.8425 2.7749 405.924 -14.8425 2.7749 405.924
346 1 -16.3447 4.25831 404.49 -16.3447 4.25831 404.49
350 1 -13.9774 0.568463 404.991 -13.9774 0.568463 404.991
351 1 -13.3375 1.29434 407.368 -13.3375 1.29434 407.368
353 1 -12.4731 3.51382 406.429 -12.4731 3.51382 406.429
352 1 -13.1161 2.78562 404.05 -13.1161 2.78562 404.05
354 1 -11.6087 1.30721 405.492 -11.6087 1.30721 405.492
356 1 -10.7416 3.5281 404.557 -10.7416 3.5281 404.557
358 1 -9.87969 1.31727 403.62 -9.87969 1.31727 403.62
357 1 -10.1026 4.25015 406.933 -10.1026 4.25015 406.933
363 1 -6.86553 2.77611 406.497 -6.86553 2.77611 406.497
359 1 -9.23797 2.04159 405.996 -9.23797 2.04159 405.996
362 1 -7.50597 2.05216 404.126 -7.50597 2.05216 404.126
360 1 -8.37212 4.26026 405.055 -8.37212 4.26026 405.055
364 1 -6.00125 0.566302 405.556 -6.00125 0.566302 405.556
368 1 -4.27231 0.576083 403.683 -4.27231 0.576083 403.683
366 1 -5.13235 2.78703 404.62 -5.13235 2.78703 404.62
369 1 -3.63123 1.3014 406.061 -3.63123 1.3014 406.061
367 1 -4.4954 3.51028 406.998 -4.4954 3.51028 406.998
370 1 -2.76537 3.52057 405.119 -2.76537 3.52057 405.119
372 1 -1.90046 1.3131 404.19 -1.90046 1.3131 404.19
376 1 0.472717 2.04836 404.685 0.472717 2.04836 404.685
373 1 -1.2598 2.03689 406.562 -1.2598 2.03689 406.562
374 1 -0.395809 4.25497 405.621 -0.395809 4.25497 405.621
379 1 1.97374 0.562819 406.126 1.97374 0.562819 406.126
378 1 1.33293 4.26485 403.747 1.33293 4.26485 403.747
377 1 1.10968 2.77157 407.063 1.10968 2.77157 407.063
383 1 4.34491 1.29836 406.627 4.34491 1.29836 406.627
380 1 2.83951 2.78198 405.184 2.83951 2.78198 405.184
382 1 3.7045 0.574498 404.255 3.7045 0.574498 404.255
384 1 5.20888 3.51645 405.686 5.20888 3.51645 405.686
385 1 6.0774 1.30986 404.75 6.0774 1.30986 404.75
387 1 6.93758 3.52641 403.812 6.93758 3.52641 403.812
388 1 7.5782 4.2518 406.191 7.5782 4.2518 406.191
386 1 6.71419 2.03308 407.128 6.71419 2.03308 407.128
389 1 8.44393 2.04352 405.249 8.44393 2.04352 405.249
391 1 9.30883 4.26353 404.32 9.30883 4.26353 404.32
392 1 9.94917 0.559903 406.693 9.94917 0.559903 406.693
393 1 10.8131 2.77802 405.751 10.8131 2.77802 405.751
394 1 11.6815 0.571444 404.815 11.6815 0.571444 404.815
396 1 12.5415 2.78803 403.878 12.5415 2.78803 403.878
397 1 13.1822 3.51334 406.256 13.1822 3.51334 406.256
395 1 12.3183 1.29461 407.194 12.3183 1.29461 407.194
398 1 14.0478 1.30507 405.315 14.0478 1.30507 405.315
400 1 14.9125 3.52508 404.385 14.9125 3.52508 404.385
401 1 15.553 4.24883 406.758 15.553 4.24883 406.758
402 1 16.4168 2.03949 405.817 16.4168 2.03949 405.817
403 1 17.285 4.26035 404.88 17.285 4.26035 404.88
405 1 18.145 2.04948 403.943 18.145 2.04948 403.943
406 1 18.7858 2.77468 406.321 18.7858 2.77468 406.321
409 1 20.5159 2.78633 404.45 20.5159 2.78633 404.45
410 1 21.1566 3.50995 406.822 21.1566 3.50995 406.822
407 1 19.6512 0.566352 405.379 19.6512 0.566352 405.379
404 1 17.922 0.555977 407.259 17.922 0.555977 407.259
412 1 22.8885 3.52134 404.944 22.8885 3.52134 404.944
411 1 22.0202 1.30052 405.881 22.0202 1.30052 405.881
415 1 24.3893 2.03494 406.384 24.3893 2.03494 406.384
414 1 23.748 1.31031 404.006 23.748 1.31031 404.006
416 1 25.2555 4.2537 405.441 25.2555 4.2537 405.441
413 1 23.5257 4.24402 407.322 23.5257 4.24402 407.322
418 1 26.1194 2.04554 404.511 26.1194 2.04554 404.511
419 1 26.7575 2.77117 406.888 26.7575 2.77117 406.888
420 1 26.9823 4.2575 403.557 26.9823 4.2575 403.557
421 1 27.6212 0.561972 405.945 27.6212 0.561972 405.945
422 1 28.4858 2.78317 405.012 28.4858 2.78317 405.012
424 1 29.3466 0.573109 404.071 29.3466 0.573109 404.071
426 1 30.8537 3.52178 405.513 30.8537 3.52178 405.513
425 1 29.9898 1.30079 406.45 29.9898 1.30079 406.45
430 1 32.5815 3.53222 403.639 32.5815 3.53222 403.639
428 1 31.7202 1.31538 404.576 31.7202 1.31538 404.576
429 1 32.3596 2.03692 406.953 32.3596 2.03692 406.953
432 1 34.0889 2.04735 405.074 34.0889 2.04735 405.074
431 1 33.2237 4.25598 406.016 33.2237 4.25598 406.016
435 1 35.5955 0.562818 406.516 35.5955 0.562818 406.516
436 1 36.4592 2.78063 405.575 36.4592 2.78063 405.575
434 1 34.9545 4.26687 404.145 34.9545 4.26687 404.145
440 1 38.1869 2.79071 403.7 38.1869 2.79071 403.7
438 1 37.3274 0.574054 404.638 37.3274 0.574054 404.638
439 1 37.9651 1.29673 407.016 37.9651 1.29673 407.016
442 1 39.6939 1.30729 405.136 39.6939 1.30729 405.136
441 1 38.8287 3.51544 406.078 38.8287 3.51544 406.078
444 1 40.5582 3.52739 404.205 40.5582 3.52739 404.205
446 1 42.0631 2.04138 405.636 42.0631 2.04138 405.636
445 1 41.1997 4.25061 406.578 41.1997 4.25061 406.578
450 1 43.7906 2.0515 403.761 43.7906 2.0515 403.761
451 1 44.4324 2.77635 406.139 44.4324 2.77635 406.139
448 1 42.931 4.26234 404.699 42.931 4.26234 404.699
449 1 43.5689 0.557517 407.077 43.5689 0.557517 407.077
452 1 45.2976 0.568162 405.197 45.2976 0.568162 405.197
454 1 46.1619 2.78823 404.267 46.1619 2.78823 404.267
457 1 48.5347 3.52327 404.761 48.5347 3.52327 404.761
455 1 46.8034 3.51155 406.639 46.8034 3.51155 406.639
456 1 47.6668 1.30231 405.697 47.6668 1.30231 405.697
459 1 49.3942 1.31246 403.822 49.3942 1.31246 403.822
458 1 49.1726 4.24594 407.139 49.1726 4.24594 407.139
460 1 50.0361 2.03732 406.201 50.0361 2.03732 406.201
463 1 51.7655 2.04925 404.328 51.7655 2.04925 404.328
461 1 50.9012 4.25661 405.259 50.9012 4.25661 405.259
464 1 52.4071 2.77258 406.701 52.4071 2.77258 406.701
465 1 53.2704 0.563355 405.759 53.2704 0.563355 405.759
468 1 54.9977 0.573552 403.884 54.9977 0.573552 403.884
466 1 54.1382 2.78433 404.822 54.1382 2.78433 404.822
469 1 55.6396 1.29842 406.262 55.6396 1.29842 406.262
467 1 54.7763 3.50702 407.2 54.7763 3.50702 407.2
470 1 56.5047 3.51771 405.32 56.5047 3.51771 405.32
472 1 57.3689 1.31036 404.389 57.3689 1.31036 404.389
475 1 59.7416 2.04546 404.883 59.7416 2.04546 404.883
473 1 58.0106 2.0337 406.762 58.0106 2.0337 406.762
474 1 58.8738 4.25194 405.82 58.8738 4.25194 405.82
477 1 60.6009 4.26214 403.944 60.6009 4.26214 403.944
481 1 62.9721 0.571482 404.45 62.9721 0.571482 404.45
478 1 61.2431 0.559561 406.323 61.2431 0.559561 406.323
479 1 62.108 2.77884 405.38 62.108 2.77884 405.38
482 1 63.6141 1.29485 406.822 63.6141 1.29485 406.822
476 1 60.3798 2.76817 407.261 60.3798 2.76817 407.261
483 1 64.4772 3.51306 405.88 64.4772 3.51306 405.88
486 1 66.2041 3.5232 404.005 66.2041 3.5232 404.005
488 1 67.7114 2.03987 405.44 67.7114 2.03987 405.44
484 1 65.3448 1.30656 404.943 65.3448 1.30656 404.943
487 1 66.8466 4.2481 406.383 66.8466 4.2481 406.383
485 1 65.9833 2.0293 407.321 65.9833 2.0293 407.321
490 1 68.5755 4.25991 404.51 68.5755 4.25991 404.51
493 1 70.0807 2.77395 405.94 70.0807 2.77395 405.94
491 1 69.2177 0.555845 406.882 69.2177 0.555845 406.882
494 1 70.9484 0.567388 405.002 70.9484 0.567388 405.002
492 1 69.4352 2.04521 403.558 69.4352 2.04521 403.558
496 1 71.8073 2.78386 404.064 71.8073 2.78386 404.064
497 1 72.4502 3.50836 406.442 72.4502 3.50836 406.442
500 1 74.1792 3.51909 404.567 74.1792 3.51909 404.567
498 1 73.3158 1.29975 405.498 73.3158 1.29975 405.498
502 1 75.0416 1.30362 403.612 75.0416 1.30362 403.612
501 1 74.8188 4.24465 406.943 74.8188 4.24465 406.943
503 1 75.6819 2.03552 406 75.6819 2.03552 406
506 1 77.4063 2.04673 404.125 77.4063 2.04673 404.125
507 1 78.051 2.77446 406.504 78.051 2.77446 406.504
504 1 76.546 4.25677 405.066 76.546 4.25677 405.066
508 1 78.9144 0.568048 405.565 78.9144 0.568048 405.565
510 1 79.7803 2.78913 404.629 79.7803 2.78913 404.629
512 1 80.6412 0.578508 403.691 80.6412 0.578508 403.691
514 1 82.1495 3.52126 405.125 82.1495 3.52126 405.125
516 1 83.0146 1.31331 404.196 83.0146 1.31331 404.196
513 1 81.2848 1.30243 406.067 81.2848 1.30243 406.067
511 1 80.4212 3.5108 407.005 80.4212 3.5108 407.005
517 1 83.657 2.03696 406.566 83.657 2.03696 406.566
523 1 86.8902 0.562383 406.126 86.8902 0.562383 406.126
520 1 85.388 2.04813 404.687 85.388 2.04813 404.687
518 1 84.5202 4.25475 405.624 84.5202 4.25475 405.624
522 1 86.247 4.26472 403.749 86.247 4.26472 403.749
521 1 86.0271 2.77118 407.064 86.0271 2.77118 407.064
526 1 88.6187 0.574139 404.253 88.6187 0.574139 404.253
528 1 90.1246 3.51599 405.683 90.1246 3.51599 405.683
524 1 87.7549 2.7816 405.184 87.7549 2.7816 405.184
529 1 90.9919 1.3093 404.746 90.9919 1.3093 404.746
527 1 89.2617 1.29792 406.625 89.2617 1.29792 406.625
536 1 94.8662 0.559987 406.685 94.8662 0.559987 406.685
531 1 91.851 3.52569 403.808 91.851 3.52569 403.808
533 1 93.3589 2.04296 405.243 93.3589 2.04296 405.243
532 1 92.4944 4.25143 406.186 92.4944 4.25143 406.186
535 1 94.2227 4.26268 404.313 94.2227 4.26268 404.313
530 1 91.6314 2.03281 407.124 91.6314 2.03281 407.124
538 1 96.5962 0.5709 404.806 96.5962 0.5709 404.806
541 1 98.0989 3.51484 406.246 98.0989 3.51484 406.246
540 1 97.4547 2.78684 403.868 97.4547 2.78684 403.868
537 1 95.7288 2.77786 405.743 95.7288 2.77786 405.743
539 1 97.2364 1.29599 407.183 97.2364 1.29599 407.183
546 1 101.339 2.04221 405.798 101.339 2.04221 405.798
544 1 99.8257 3.52678 404.375 99.8257 3.52678 404.375
542 1 98.9632 1.30673 405.305 98.9632 1.30673 405.305
547 1 102.206 4.26318 404.861 102.206 4.26318 404.861
545 1 100.474 4.25125 406.741 100.474 4.25125 406.741
553 1 105.439 2.78545 404.416 105.439 2.78545 404.416
550 1 103.71 2.77515 406.295 103.71 2.77515 406.295
554 1 106.081 3.51086 406.791 106.081 3.51086 406.791
549 1 103.071 2.0524 403.918 103.071 2.0524 403.918
551 1 104.575 0.566495 405.353 104.575 0.566495 405.353
548 1 102.846 0.556864 407.236 102.846 0.556864 407.236
560 1 -60.7771 0.544265 409.671 -60.7771 0.544265 409.671
558 1 -62.2817 2.02754 408.231 -62.2817 2.02754 408.231
562 1 -59.9136 2.76479 408.73 -59.9136 2.76479 408.73
559 1 -61.6407 2.7516 410.61 -61.6407 2.7516 410.61
556 1 -63.1456 4.23504 409.171 -63.1456 4.23504 409.171
273 1 -59.051 0.558254 407.791 -59.051 0.558254 407.791
565 1 -57.5443 3.50009 409.231 -57.5443 3.50009 409.231
568 1 -56.0386 2.01536 410.672 -56.0386 2.01536 410.672
567 1 -56.68 1.29196 408.293 -56.68 1.29196 408.293
564 1 -58.4082 1.28028 410.171 -58.4082 1.28028 410.171
563 1 -59.2718 3.48771 411.11 -59.2718 3.48771 411.11
573 1 -52.8025 0.541085 410.237 -52.8025 0.541085 410.237
571 1 -54.3081 2.02475 408.797 -54.3081 2.02475 408.797
283 1 -53.4413 4.24167 407.859 -53.4413 4.24167 407.859
569 1 -55.1738 4.2341 409.733 -55.1738 4.2341 409.733
574 1 -51.9364 2.75942 409.301 -51.9364 2.75942 409.301
572 1 -53.668 2.75017 411.175 -53.668 2.75017 411.175
576 1 -51.0704 0.549972 408.363 -51.0704 0.549972 408.363
578 1 -49.5654 3.49506 409.803 -49.5654 3.49506 409.803
289 1 -50.2044 2.76954 407.426 -50.2044 2.76954 407.426
580 1 -48.6999 1.28654 408.865 -48.6999 1.28654 408.865
577 1 -50.4313 1.27622 410.739 -50.4313 1.27622 410.739
293 1 -47.8348 3.50616 407.927 -47.8348 3.50616 407.927
299 1 -44.5987 2.0328 407.488 -44.5987 2.0328 407.488
583 1 -46.3291 2.02207 409.365 -46.3291 2.02207 409.365
585 1 -45.4639 4.24126 408.427 -45.4639 4.24126 408.427
582 1 -47.1945 4.23042 410.303 -47.1945 4.23042 410.303
586 1 -44.8238 0.537841 410.803 -44.8238 0.537841 410.803
589 1 -43.0932 0.548474 408.927 -43.0932 0.548474 408.927
591 1 -41.588 3.49151 410.365 -41.588 3.49151 410.365
303 1 -42.2284 2.76716 407.988 -42.2284 2.76716 407.988
587 1 -43.9586 2.75679 409.865 -43.9586 2.75679 409.865
592 1 -40.7226 1.28312 409.427 -40.7226 1.28312 409.427
309 1 -38.9925 1.29361 407.549 -38.9925 1.29361 407.549