ITEM: TIMESTEP
0
ITEM: NUMBER OF ATOMS
4630
ITEM: BOX BOUNDS xy xz yz pp pp pp
-6.3616644327945288e+01 1.0663567617614528e+02 0.0000000000000000e+00
0.0000000000000000e+00 4.4274527100805940e+00 0.0000000000000000e+00
3.8000000000000000e+02 5.0000000000000000e+02 0.0000000000000000e+00
ITEM: ATOMS id type x y z xu yu zu
7 1 -59.3494 2.7732 399.06 -59.3494 2.7732 399.06
27 1 -45.8156 2.06847 399.606 -45.8156 2.06847 399.606
36 1 -40.1939 1.32729 399.664 -40.1939 1.32729 399.664
45 1 -34.5752 0.58819 399.726 -34.5752 0.58819 399.726
85 1 -8.86622 0.592771 399.552 -8.86622 0.592771 399.552
94 1 -3.24444 4.27947 399.612 -3.24444 4.27947 399.612
103 1 2.37332 3.5409 399.676 2.37332 3.5409 399.676
112 1 7.99014 2.80273 399.74 7.99014 2.80273 399.74
152 1 33.6888 2.80733 399.565 33.6888 2.80733 399.565
161 1 39.3093 2.06567 399.623 39.3093 2.06567 399.623
170 1 44.9263 1.32611 399.683 44.9263 1.32611 399.683
227 1 81.8602 4.27949 399.616 81.8602 4.27949 399.616
236 1 87.4811 3.53829 399.673 87.4811 3.53829 399.673
245 1 93.0979 2.79891 399.732 93.0979 2.79891 399.732
5 1 -60.2513 0.558677 399.858 -60.2513 0.558677 399.858
2 1 -62.0455 0.574083 401.635 -62.0455 0.574083 401.635
3 1 -61.1721 2.78555 400.743 -61.1721 2.78555 400.743
1 1 -62.898 2.76077 402.576 107.354 2.76077 402.576
4 1 -60.5238 3.51517 403.071 -60.5238 3.51517 403.071
9 1 -57.865 1.23571 400.321 -57.865 1.23571 400.321
8 1 -58.7412 3.49067 401.277 -58.7412 3.49067 401.277
10 1 -57.2511 2.00319 402.671 -57.2511 2.00319 402.671
6 1 -59.6418 1.29773 402.149 -59.6418 1.29773 402.149
11 1 -56.3891 4.22363 401.749 -56.3891 4.22363 401.749
12 1 -55.5238 2.04512 400.802 -55.5238 2.04512 400.802
16 1 -53.14 2.74247 401.265 -53.14 2.74247 401.265
15 1 -54.011 0.544509 402.249 -54.011 0.544509 402.249
14 1 -54.6681 4.27504 399.969 -54.6681 4.27504 399.969
17 1 -52.277 0.544118 400.41 -52.277 0.544118 400.41
13 1 -54.873 2.74992 403.149 -54.873 2.74992 403.149
22 1 -49.023 3.51662 400.012 -49.023 3.51662 400.012
20 1 -49.9051 1.29445 400.857 -49.9051 1.29445 400.857
19 1 -50.7829 3.48609 401.783 -50.7829 3.48609 401.783
18 1 -51.636 1.27257 402.731 -51.636 1.27257 402.731
21 1 -49.2754 2.02096 403.221 -49.2754 2.02096 403.221
23 1 -48.4049 4.2414 402.311 -48.4049 4.2414 402.311
26 1 -46.0221 0.548819 402.779 -46.0221 0.548819 402.779
24 1 -47.5495 2.02377 401.374 -47.5495 2.02377 401.374
28 1 -45.1585 2.76651 401.882 -45.1585 2.76651 401.882
25 1 -46.6695 4.26656 400.443 -46.6695 4.26656 400.443
29 1 -44.285 0.535644 400.898 -44.285 0.535644 400.898
31 1 -43.4211 2.76438 400.045 -43.4211 2.76438 400.045
34 1 -41.0532 3.52559 400.498 -41.0532 3.52559 400.498
32 1 -42.7811 3.49685 402.366 -42.7811 3.49685 402.366
33 1 -41.9335 1.2849 401.428 -41.9335 1.2849 401.428
30 1 -43.6555 1.27713 403.28 -43.6555 1.27713 403.28
35 1 -40.4039 4.23731 402.837 -40.4039 4.23731 402.837
40 1 -37.8014 2.02448 400.106 -37.8014 2.02448 400.106
37 1 -39.5414 2.02741 401.941 -39.5414 2.02741 401.941
41 1 -37.1633 2.75777 402.427 -37.1633 2.75777 402.427
38 1 -38.6667 4.22292 400.958 -38.6667 4.22292 400.958
39 1 -38.0379 0.538443 403.34 -38.0379 0.538443 403.34
43 1 -35.4344 2.78645 400.559 -35.4344 2.78645 400.559
42 1 -36.3151 0.545568 401.489 -36.3151 0.545568 401.489
44 1 -34.7858 3.49838 402.899 -34.7858 3.49838 402.899
46 1 -33.9231 1.28842 402.003 -33.9231 1.28842 402.003
47 1 -33.0482 3.48401 401.02 -33.0482 3.48401 401.02
49 1 -32.1829 1.28557 400.168 -32.1829 1.28557 400.168
52 1 -29.816 2.04765 400.622 -29.816 2.04765 400.622
50 1 -31.5451 2.01892 402.49 -31.5451 2.01892 402.49
51 1 -30.6968 4.23421 401.551 -30.6968 4.23421 401.551
53 1 -29.1677 2.75956 402.961 -29.1677 2.75956 402.961
54 1 -28.9569 4.27683 399.789 -28.9569 4.27683 399.789
48 1 -32.4199 4.22708 403.402 -32.4199 4.22708 403.402
58 1 -26.5647 0.54673 400.231 -26.5647 0.54673 400.231
59 1 -25.9271 1.28007 402.552 -25.9271 1.28007 402.552
56 1 -27.43 2.74519 401.083 -27.43 2.74519 401.083
55 1 -28.3049 0.549583 402.066 -28.3049 0.549583 402.066
60 1 -25.0788 3.49537 401.614 -25.0788 3.49537 401.614
57 1 -26.8018 3.48826 403.465 -26.8018 3.48826 403.465
61 1 -24.1981 1.3088 400.685 -24.1981 1.3088 400.685
63 1 -23.3391 3.53798 399.852 -23.3391 3.53798 399.852
62 1 -23.5497 2.02062 403.024 -23.5497 2.02062 403.024
64 1 -22.6869 4.23807 402.128 -22.6869 4.23807 402.128
65 1 -21.8122 2.00616 401.146 -21.8122 2.00616 401.146
66 1 -21.1839 2.74919 403.528 -21.1839 2.74919 403.528
70 1 -18.5803 0.56942 400.747 -18.5803 0.56942 400.747
68 1 -20.3091 0.540955 402.615 -20.3091 0.540955 402.615
69 1 -19.4612 2.75603 401.677 -19.4612 2.75603 401.677
67 1 -20.9468 4.23515 400.294 -20.9468 4.23515 400.294
72 1 -17.7227 2.79829 399.913 -17.7227 2.79829 399.913
71 1 -17.9312 1.28139 403.087 -17.9312 1.28139 403.087
75 1 -15.3313 3.49612 400.354 -15.3313 3.49612 400.354
74 1 -16.1941 1.26727 401.207 -16.1941 1.26727 401.207
73 1 -17.0696 3.49861 402.19 -17.0696 3.49861 402.19
76 1 -14.6905 4.22553 402.673 -14.6905 4.22553 402.673
77 1 -13.8359 2.01099 401.726 -13.8359 2.01099 401.726
348 1 -15.563 2.00784 403.586 -15.563 2.00784 403.586
80 1 -12.0743 2.04113 399.957 -12.0743 2.04113 399.957
81 1 -11.4572 2.76623 402.255 -11.4572 2.76623 402.255
78 1 -12.9579 4.24641 400.8 -12.9579 4.24641 400.8
79 1 -12.3284 0.546141 403.164 -12.3284 0.546141 403.164
83 1 -9.72058 2.79087 400.388 -9.72058 2.79087 400.388
82 1 -10.6014 0.548172 401.318 -10.6014 0.548172 401.318
87 1 -7.33598 3.48759 400.845 -7.33598 3.48759 400.845
84 1 -9.07393 3.50108 402.725 -9.07393 3.50108 402.725
86 1 -8.20998 1.29112 401.828 -8.20998 1.29112 401.828
89 1 -6.47178 1.28886 399.992 -6.47178 1.28886 399.992
90 1 -5.83248 2.02156 402.313 -5.83248 2.02156 402.313
88 1 -6.70718 4.22939 403.226 -6.70718 4.22939 403.226
92 1 -4.104 2.05029 400.445 -4.104 2.05029 400.445
93 1 -3.45536 2.76212 402.785 -3.45536 2.76212 402.785
91 1 -4.98456 4.23703 401.375 -4.98456 4.23703 401.375
96 1 -1.71771 2.74776 400.906 -1.71771 2.74776 400.906
95 1 -2.59264 0.552209 401.889 -2.59264 0.552209 401.889
98 1 -0.852225 0.549345 400.054 -0.852225 0.549345 400.054
100 1 0.633414 3.49813 401.438 0.633414 3.49813 401.438
99 1 -0.214942 1.28276 402.376 -0.214942 1.28276 402.376
97 1 -1.08972 3.49085 403.289 -1.08972 3.49085 403.289
101 1 1.51427 1.31169 400.509 1.51427 1.31169 400.509
102 1 2.16214 2.0235 402.849 2.16214 2.0235 402.849
105 1 3.89998 2.00938 400.97 3.89998 2.00938 400.97
104 1 3.02494 4.24108 401.953 3.02494 4.24108 401.953
108 1 5.40227 0.544378 402.44 5.40227 0.544378 402.44
107 1 4.76528 4.23843 400.118 4.76528 4.23843 400.118
106 1 4.52752 2.75241 403.353 4.52752 2.75241 403.353
110 1 7.13135 0.573512 400.573 7.13135 0.573512 400.573
111 1 7.77911 1.28514 402.913 7.77911 1.28514 402.913
109 1 6.25063 2.75988 401.503 6.25063 2.75988 401.503
113 1 8.64182 3.50277 402.017 8.64182 3.50277 402.017
114 1 9.51677 1.27116 401.035 9.51677 1.27116 401.035
116 1 10.3819 3.5002 400.182 10.3819 3.5002 400.182
118 1 11.8671 2.02163 401.567 11.8671 2.02163 401.567
117 1 11.0189 4.23352 402.505 11.0189 4.23352 402.505
121 1 13.6062 2.06447 399.804 13.6062 2.06447 399.804
120 1 13.3955 0.546738 402.977 13.3955 0.546738 402.977
119 1 12.7477 4.26273 400.637 12.7477 4.26273 400.637
115 1 10.1442 2.01408 403.417 10.1442 2.01408 403.417
122 1 14.2581 2.76437 402.081 14.2581 2.76437 402.081
123 1 15.1329 0.532798 401.099 15.1329 0.532798 401.099
125 1 15.9979 2.76181 400.246 15.9979 2.76181 400.246
126 1 16.635 3.49502 402.569 16.635 3.49502 402.569
127 1 17.4831 1.28313 401.631 17.4831 1.28313 401.631
124 1 15.7605 1.27558 403.482 15.7605 1.27558 403.482
130 1 19.2217 1.32592 399.867 19.2217 1.32592 399.867
128 1 18.3635 3.5242 400.701 18.3635 3.5242 400.701
129 1 19.0116 4.23547 403.041 19.0116 4.23547 403.041
131 1 19.874 2.02561 402.145 19.874 2.02561 402.145
132 1 20.7485 4.22141 401.162 20.7485 4.22141 401.162
133 1 21.3765 0.536591 403.545 21.3765 0.536591 403.545
134 1 21.6134 2.02294 400.309 21.6134 2.02294 400.309
136 1 23.0985 0.543805 401.693 23.0985 0.543805 401.693
135 1 22.251 2.75595 402.631 22.251 2.75595 402.631
139 1 24.8356 0.586172 399.929 24.8356 0.586172 399.929
137 1 23.979 2.78478 400.763 23.979 2.78478 400.763
138 1 24.6281 3.49614 403.103 24.6281 3.49614 403.103
141 1 26.3644 3.48235 401.223 26.3644 3.48235 401.223
140 1 25.4893 1.28602 402.206 25.4893 1.28602 402.206
142 1 27.2267 1.28371 400.369 27.2267 1.28371 400.369
143 1 27.8676 2.01275 402.688 27.8676 2.01275 402.688
144 1 28.7217 4.22579 401.741 28.7217 4.22579 401.741
145 1 29.5993 2.03378 400.815 29.5993 2.03378 400.815
147 1 30.4819 4.25586 399.971 30.4819 4.25586 399.971
146 1 30.2291 2.76051 403.179 30.2291 2.76051 403.179
150 1 32.8353 0.578033 400.402 32.8353 0.578033 400.402
148 1 31.0999 0.553227 402.269 31.0999 0.553227 402.269
149 1 31.9551 2.7628 401.332 31.9551 2.7628 401.332
153 1 34.346 3.50522 401.841 34.346 3.50522 401.841
151 1 33.4826 1.28768 402.738 33.4826 1.28768 402.738
156 1 36.0832 3.50299 400.004 36.0832 3.50299 400.004
154 1 35.2195 1.27432 400.857 35.2195 1.27432 400.857
157 1 36.7232 4.23528 402.325 36.7232 4.23528 402.325
155 1 35.849 2.01563 403.239 35.849 2.01563 403.239
158 1 37.5706 2.02333 401.386 37.5706 2.02333 401.386
159 1 38.4506 4.26402 400.456 38.4506 4.26402 400.456
162 1 39.9623 2.76544 401.899 39.9623 2.76544 401.899
160 1 39.1001 0.5479 402.796 39.1001 0.5479 402.796
163 1 40.8366 0.533587 400.916 40.8366 0.533587 400.916
165 1 41.7016 2.76256 400.064 41.7016 2.76256 400.064
164 1 41.4656 1.2762 403.299 41.4656 1.2762 403.299
168 1 44.068 3.52441 400.517 44.068 3.52441 400.517
167 1 43.1877 1.28347 401.447 43.1877 1.28347 401.447
166 1 42.3398 3.49557 402.385 42.3398 3.49557 402.385
169 1 44.7169 4.23584 402.857 44.7169 4.23584 402.857
171 1 45.5792 2.02594 401.96 45.5792 2.02594 401.96
174 1 47.3185 2.02323 400.124 47.3185 2.02323 400.124
175 1 47.9566 2.75628 402.446 47.9566 2.75628 402.446
172 1 46.4536 4.22169 400.977 46.4536 4.22169 400.977
173 1 47.0824 0.536878 403.36 47.0824 0.536878 403.36
177 1 49.6847 2.78528 400.578 49.6847 2.78528 400.578
176 1 48.8045 0.54428 401.508 48.8045 0.54428 401.508
179 1 50.543 0.58699 399.744 50.543 0.58699 399.744
181 1 52.0703 3.48261 401.038 52.0703 3.48261 401.038
178 1 50.3336 3.49666 402.918 50.3336 3.49666 402.918
180 1 51.1959 1.2868 402.021 51.1959 1.2868 402.021
183 1 52.935 1.28416 400.185 52.935 1.28416 400.185
184 1 53.5732 2.01723 402.507 53.5732 2.01723 402.507
186 1 55.3012 2.0463 400.639 55.3012 2.0463 400.639
187 1 55.9502 2.75765 402.978 55.9502 2.75765 402.978
188 1 56.1593 4.27547 399.805 56.1593 4.27547 399.805
185 1 54.421 4.23272 401.569 54.421 4.23272 401.569
182 1 52.699 4.22525 403.421 52.699 4.22525 403.421
189 1 56.8124 0.547821 402.082 56.8124 0.547821 402.082
192 1 58.5514 0.545208 400.246 58.5514 0.545208 400.246
194 1 60.0374 3.4938 401.63 60.0374 3.4938 401.63
193 1 59.1897 1.27829 402.568 59.1897 1.27829 402.568
190 1 57.6867 2.74365 401.099 57.6867 2.74365 401.099
191 1 58.3156 3.48629 403.481 58.3156 3.48629 403.481
195 1 60.9175 1.30739 400.699 60.9175 1.30739 400.699
197 1 61.7755 3.53656 399.865 61.7755 3.53656 399.865
199 1 63.303 2.00473 401.159 63.303 2.00473 401.159
196 1 61.5666 2.01873 403.039 61.5666 2.01873 403.039
198 1 62.4287 4.23634 402.142 62.4287 4.23634 402.142
200 1 63.932 2.74738 403.542 63.932 2.74738 403.542
202 1 64.806 0.539356 402.628 64.806 0.539356 402.628
201 1 64.1675 4.23373 400.306 64.1675 4.23373 400.306
206 1 67.3915 2.79761 399.925 67.3915 2.79761 399.925
204 1 66.5336 0.568445 400.76 66.5336 0.568445 400.76
203 1 65.6536 2.75487 401.69 65.6536 2.75487 401.69
205 1 67.183 1.27973 403.099 67.183 1.27973 403.099
207 1 68.045 3.49732 402.202 68.045 3.49732 402.202
209 1 69.7836 3.49461 400.366 69.7836 3.49461 400.366
208 1 68.919 1.26563 401.219 68.919 1.26563 401.219
211 1 71.2696 2.01545 401.749 71.2696 2.01545 401.749
210 1 70.4225 4.22763 402.688 70.4225 4.22763 402.688
212 1 72.1497 4.25641 400.819 72.1497 4.25641 400.819
214 1 73.0061 2.05781 399.984 73.0061 2.05781 399.984
217 1 75.3975 2.75548 400.423 75.3975 2.75548 400.423
216 1 74.5355 0.52664 401.277 74.5355 0.52664 401.277
215 1 73.6608 2.75779 402.261 73.6608 2.75779 402.261
213 1 72.8 0.540457 403.158 72.8 0.540457 403.158
218 1 76.0396 3.48465 402.742 76.0396 3.48465 402.742
220 1 77.7706 3.50572 400.868 77.7706 3.50572 400.868
219 1 76.8934 1.27024 401.794 76.8934 1.27024 401.794
222 1 78.6531 1.3004 400.023 78.6531 1.3004 400.023
223 1 79.2719 2.02534 402.322 79.2719 2.02534 402.322
221 1 78.4015 4.23261 403.232 78.4015 4.23261 403.232
224 1 80.1269 4.23489 401.384 80.1269 4.23489 401.384
225 1 81.0068 2.05015 400.453 81.0068 2.05015 400.453
229 1 83.3913 2.74666 400.908 83.3913 2.74666 400.908
228 1 82.5182 0.550115 401.892 82.5182 0.550115 401.892
226 1 81.6551 2.76002 402.79 81.6551 2.76002 402.79
231 1 84.2548 0.547901 400.055 84.2548 0.547901 400.055
234 1 86.6225 1.30916 400.506 86.6225 1.30916 400.506
233 1 85.7427 3.49591 401.437 85.7427 3.49591 401.437
235 1 87.2727 2.02071 402.846 87.2727 2.02071 402.846
232 1 84.8956 1.2804 402.376 84.8956 1.2804 402.376
230 1 84.0217 3.48821 403.29 84.0217 3.48821 403.29
241 1 90.5122 0.541047 402.435 90.5122 0.541047 402.435
238 1 89.0087 2.00633 400.966 89.0087 2.00633 400.966
240 1 89.8734 4.23529 400.113 89.8734 4.23529 400.113
237 1 88.1346 4.23822 401.949 88.1346 4.23822 401.949
239 1 89.6383 2.74924 403.348 89.6383 2.74924 403.348
242 1 91.3597 2.75635 401.496 91.3597 2.75635 401.496
243 1 92.2397 0.569775 400.566 92.2397 0.569775 400.566
247 1 94.6252 1.26674 401.026 94.6252 1.26674 401.026
246 1 93.7512 3.49871 402.009 93.7512 3.49871 402.009
244 1 92.8893 1.28137 402.906 92.8893 1.28137 402.906
254 1 98.7117 2.05717 399.793 98.7117 2.05717 399.793
249 1 95.49 3.49559 400.173 95.49 3.49559 400.173
253 1 98.5054 0.541808 402.967 98.5054 0.541808 402.967
251 1 96.9752 2.01621 401.558 96.9752 2.01621 401.558
252 1 97.8556 4.2564 400.627 97.8556 4.2564 400.627
250 1 96.1283 4.22889 402.496 96.1283 4.22889 402.496
248 1 95.2545 2.01001 403.409 95.2545 2.01001 403.409
258 1 101.102 2.75084 400.235 101.102 2.75084 400.235
255 1 99.366 2.75797 402.071 99.366 2.75797 402.071
259 1 101.739 3.49393 402.562 101.739 3.49393 402.562
260 1 102.584 1.28354 401.634 102.584 1.28354 401.634
256 1 100.241 0.524692 401.088 100.241 0.524692 401.088
257 1 100.869 1.27485 403.474 100.869 1.27485 403.474
263 1 104.292 1.31605 399.88 104.292 1.31605 399.88
261 1 103.448 3.52488 400.699 103.448 3.52488 400.699
264 1 105.004 2.02297 402.106 105.004 2.02297 402.106
265 1 105.85 4.21955 401.149 105.85 4.21955 401.149
262 1 104.129 4.23498 403.02 104.129 4.23498 403.02
266 1 106.498 0.533915 403.52 106.498 0.533915 403.52
268 1 -62.2453 3.48989 404.949 -62.2453 3.48989 404.949
271 1 -60.7388 2.00989 406.392 -60.7388 2.00989 406.392
270 1 -61.3842 1.28782 404.005 -61.3842 1.28782 404.005
267 1 -63.1084 1.26938 405.892 -63.1084 1.26938 405.892
272 1 -59.8769 4.23181 405.455 -59.8769 4.23181 405.455
269 1 -61.6032 4.2162 407.332 -61.6032 4.2162 407.332
277 1 -57.4953 0.536523 405.962 -57.4953 0.536523 405.962
274 1 -59.0092 2.02333 404.518 -59.0092 2.02333 404.518
278 1 -56.6206 2.74844 405.026 -56.6206 2.74844 405.026
275 1 -58.3633 2.74642 406.893 -58.3633 2.74642 406.893
276 1 -58.1353 4.23448 403.603 -58.1353 4.23448 403.603
279 1 -55.9845 3.47746 407.398 -55.9845 3.47746 407.398
280 1 -55.7492 0.533482 404.099 -55.7492 0.533482 404.099
286 1 -52.508 3.48088 403.646 -52.508 3.48088 403.646
282 1 -54.2426 3.47914 405.527 -54.2426 3.47914 405.527
284 1 -53.3726 1.26941 404.6 -53.3726 1.26941 404.6
281 1 -55.1144 1.26511 406.467 -55.1144 1.26511 406.467
285 1 -52.7375 1.99974 406.97 -52.7375 1.99974 406.97
291 1 -49.4958 0.528655 406.533 -49.4958 0.528655 406.533
288 1 -51.0019 2.00882 405.098 -51.0019 2.00882 405.098
292 1 -48.6293 2.74895 405.596 -48.6293 2.74895 405.596
287 1 -51.8699 4.21577 406.03 -51.8699 4.21577 406.03
290 1 -50.1393 4.2255 404.157 -50.1393 4.2255 404.157
294 1 -47.7606 0.541839 404.662 -47.7606 0.541839 404.662
297 1 -46.2539 3.48431 406.098 -46.2539 3.48431 406.098
296 1 -46.897 2.75772 403.725 -46.897 2.75772 403.725
298 1 -45.3862 1.27479 405.158 -45.3862 1.27479 405.158
295 1 -47.1204 1.26618 407.034 -47.1204 1.26618 407.034
300 1 -44.5183 3.49335 404.231 -44.5183 3.49335 404.231
306 1 -41.278 2.01689 403.785 -41.278 2.01689 403.785
302 1 -43.0103 2.00888 405.657 -43.0103 2.00888 405.657
304 1 -42.1396 4.22879 404.722 -42.1396 4.22879 404.722
301 1 -43.8764 4.21963 406.598 -43.8764 4.21963 406.598
305 1 -41.5011 0.526987 407.096 -41.5011 0.526987 407.096
307 1 -40.6351 2.74462 406.159 -40.6351 2.74462 406.159
310 1 -38.9007 2.75455 404.29 -38.9007 2.75455 404.29
312 1 -37.3925 1.27033 405.718 -37.3925 1.27033 405.718
311 1 -38.2583 3.48074 406.659 -38.2583 3.48074 406.659
308 1 -39.7674 0.535478 405.219 -39.7674 0.535478 405.219
313 1 -36.5221 3.49022 404.783 -36.5221 3.49022 404.783
315 1 -35.6603 1.27816 403.846 -35.6603 1.27816 403.846
316 1 -35.0174 2.00613 406.221 -35.0174 2.00613 406.221
317 1 -34.1497 4.22432 405.281 -34.1497 4.22432 405.281
314 1 -35.8833 4.21592 407.157 -35.8833 4.21592 407.157
319 1 -33.2828 2.01581 404.352 -33.2828 2.01581 404.352
320 1 -32.6406 2.74219 406.721 -32.6406 2.74219 406.721
324 1 -30.0422 0.539379 403.909 -30.0422 0.539379 403.909
321 1 -31.7747 0.53168 405.781 -31.7747 0.53168 405.781
322 1 -30.9041 2.75149 404.846 -30.9041 2.75149 404.846
323 1 -30.2655 3.47731 407.22 -30.2655 3.47731 407.22
325 1 -29.3996 1.26745 406.284 -29.3996 1.26745 406.284
328 1 -27.6648 1.27702 404.415 -27.6648 1.27702 404.415
326 1 -28.5318 3.48557 405.343 -28.5318 3.48557 405.343
329 1 -27.0227 2.00346 406.784 -27.0227 2.00346 406.784
330 1 -26.1567 4.22035 405.843 -26.1567 4.22035 405.843
331 1 -25.2862 2.01266 404.909 -25.2862 2.01266 404.909
337 1 -22.0467 0.53805 404.478 -22.0467 0.53805 404.478
334 1 -23.7816 0.528599 406.347 -23.7816 0.528599 406.347
335 1 -22.9138 2.74665 405.406 -22.9138 2.74665 405.406
333 1 -24.4242 4.22796 403.972 -24.4242 4.22796 403.972
338 1 -21.4047 1.26448 406.847 -21.4047 1.26448 406.847
332 1 -24.6476 2.73852 407.283 -24.6476 2.73852 407.283
340 1 -19.6679 1.27354 404.971 -19.6679 1.27354 404.971
342 1 -18.8063 3.4887 404.034 -18.8063 3.4887 404.034
339 1 -20.5387 3.48127 405.906 -20.5387 3.48127 405.906
344 1 -17.2949 2.00661 405.468 -17.2949 2.00661 405.468
343 1 -18.1636 4.21635 406.409 -18.1636 4.21635 406.409
341 1 -19.0295 1.99912 407.345 -19.0295 1.99912 407.345
347 1 -15.7893 0.525696 406.912 -15.7893 0.525696 406.912
349 1 -14.9232 2.74267 405.971 -14.9232 2.74267 405.971
346 1 -16.4285 4.22483 404.539 -16.4285 4.22483 404.539
350 1 -14.0559 0.535263 405.039 -14.0559 0.535263 405.039
351 1 -13.415 1.26372 407.413 -13.415 1.26372 407.413
353 1 -12.5487 3.4822 406.476 -12.5487 3.4822 406.476
352 1 -13.1928 2.75128 404.099 -13.1928 2.75128 404.099
354 1 -11.6823 1.27469 405.539 -11.6823 1.27469 405.539
356 1 -10.8132 3.49468 404.606 -10.8132 3.49468 404.606
358 1 -9.94936 1.28275 403.67 -9.94936 1.28275 403.67
357 1 -10.1731 4.21926 406.978 -10.1731 4.21926 406.978
363 1 -6.92881 2.74484 406.544 -6.92881 2.74484 406.544
359 1 -9.30647 2.00971 406.043 -9.30647 2.00971 406.043
362 1 -7.57028 2.01831 404.176 -7.57028 2.01831 404.176
360 1 -8.43853 4.22742 405.103 -8.43853 4.22742 405.103
364 1 -6.0625 0.53395 405.604 -6.0625 0.53395 405.604
368 1 -4.32974 0.541742 403.732 -4.32974 0.541742 403.732
366 1 -5.19156 2.75372 404.669 -5.19156 2.75372 404.669
369 1 -3.68735 1.26965 406.107 -3.68735 1.26965 406.107
367 1 -4.55347 3.47956 407.043 -4.55347 3.47956 407.043
370 1 -2.81951 3.48789 405.167 -2.81951 3.48789 405.167
372 1 -1.95262 1.27949 404.239 -1.95262 1.27949 404.239
376 1 0.425691 2.01526 404.733 0.425691 2.01526 404.733
373 1 -1.31075 2.00578 406.607 -1.31075 2.00578 406.607
374 1 -0.444824 4.22281 405.667 -0.444824 4.22281 405.667
379 1 1.92988 0.53125 406.171 1.92988 0.53125 406.171
378 1 1.28763 4.23069 403.796 1.28763 4.23069 403.796
377 1 1.06394 2.74102 407.107 1.06394 2.74102 407.107
383 1 4.30631 1.26741 406.672 4.30631 1.26741 406.672
380 1 2.79763 2.74947 405.231 2.79763 2.74947 405.231
382 1 3.66459 0.541026 404.303 3.66459 0.541026 404.303
384 1 5.1722 3.48442 405.732 5.1722 3.48442 405.732
385 1 6.04272 1.27686 404.797 6.04272 1.27686 404.797
387 1 6.90465 3.49232 403.86 6.90465 3.49232 403.86
388 1 7.54678 4.22032 406.236 7.54678 4.22032 406.236
386 1 6.68086 2.00265 407.172 6.68086 2.00265 407.172
389 1 8.41449 2.01108 405.295 8.41449 2.01108 405.295
391 1 9.28139 4.2301 404.367 9.28139 4.2301 404.367
392 1 9.92307 0.529004 406.736 9.92307 0.529004 406.736
393 1 10.7889 2.74602 405.796 10.7889 2.74602 405.796
394 1 11.6593 0.538455 404.862 11.6593 0.538455 404.862
396 1 12.5212 2.75392 403.925 12.5212 2.75392 403.925
397 1 13.1634 3.48185 406.3 13.1634 3.48185 406.3
395 1 12.2975 1.2642 407.236 12.2975 1.2642 407.236
398 1 14.031 1.2726 405.36 14.031 1.2726 405.36
400 1 14.8978 3.4916 404.432 14.8978 3.4916 404.432
401 1 15.5396 4.21789 406.801 15.5396 4.21789 406.801
402 1 16.4053 2.00743 405.86 16.4053 2.00743 405.86
403 1 17.2756 4.22728 404.926 17.2756 4.22728 404.926
405 1 18.1374 2.01527 403.989 18.1374 2.01527 403.989
406 1 18.7798 2.7431 406.364 18.7798 2.7431 406.364
409 1 20.514 2.75273 404.495 20.514 2.75273 404.495
410 1 21.1561 3.47888 406.864 21.1561 3.47888 406.864
407 1 19.6473 0.533776 405.423 19.6473 0.533776 405.423
404 1 17.914 0.525478 407.3 17.914 0.525478 407.3
412 1 22.8921 3.48812 404.988 22.8921 3.48812 404.988
411 1 22.0217 1.26831 405.923 22.0217 1.26831 405.923
415 1 24.3962 2.00321 406.426 24.3962 2.00321 406.426
414 1 23.7535 1.27594 404.051 23.7535 1.27594 404.051
416 1 25.2645 4.22099 405.484 25.2645 4.22099 405.484
413 1 23.5306 4.21337 407.363 23.5306 4.21337 407.363
418 1 26.1306 2.01183 404.555 26.1306 2.01183 404.555
419 1 26.77 2.73979 406.928 26.77 2.73979 406.928
420 1 26.9957 4.22242 403.602 26.9957 4.22242 403.602
421 1 27.6357 0.529386 405.987 27.6357 0.529386 405.987
422 1 28.5025 2.7495 405.055 28.5025 2.7495 405.055
424 1 29.3653 0.538154 404.115 29.3653 0.538154 404.115
426 1 30.8758 3.48859 405.555 30.8758 3.48859 405.555
425 1 30.0098 1.26861 406.491 30.0098 1.26861 406.491
430 1 32.6078 3.49677 403.684 32.6078 3.49677 403.684
428 1 31.7444 1.28118 404.62 31.7444 1.28118 404.62
429 1 32.385 2.0053 406.993 32.385 2.0053 406.993
432 1 34.1187 2.01354 405.117 34.1187 2.01354 405.117
431 1 33.2512 4.22324 406.057 33.2512 4.22324 406.057
435 1 35.6286 0.530516 406.557 35.6286 0.530516 406.557
436 1 36.4944 2.74713 405.616 36.4944 2.74713 405.616
434 1 34.9864 4.23194 404.19 34.9864 4.23194 404.19
440 1 38.2262 2.75499 403.744 38.2262 2.75499 403.744
438 1 37.3649 0.539485 404.681 37.3649 0.539485 404.681
439 1 38.0037 1.2648 407.055 38.0037 1.2648 407.055
442 1 39.7368 1.2732 405.178 39.7368 1.2732 405.178
441 1 38.8694 3.48239 406.119 38.8694 3.48239 406.119
444 1 40.6032 3.49227 404.249 40.6032 3.49227 404.249
446 1 42.1114 2.00768 405.677 42.1114 2.00768 405.677
445 1 41.246 4.21807 406.618 41.246 4.21807 406.618
450 1 43.8429 2.01559 403.805 43.8429 2.01559 403.805
451 1 44.4862 2.74313 406.179 44.4862 2.74313 406.179
448 1 42.9815 4.2276 404.742 42.9815 4.2276 404.742
449 1 43.6207 0.525414 407.116 43.6207 0.525414 407.116
452 1 45.3535 0.533922 405.239 45.3535 0.533922 405.239
454 1 46.2199 2.75294 404.31 46.2199 2.75294 404.31
457 1 48.5982 3.48838 404.803 48.5982 3.48838 404.803
455 1 46.8627 3.47887 406.679 46.8627 3.47887 406.679
456 1 47.7281 1.26846 405.738 47.7281 1.26846 405.738
459 1 49.4597 1.27639 403.866 49.4597 1.27639 403.866
458 1 49.2374 4.21373 407.177 49.2374 4.21373 407.177
460 1 50.1029 2.00399 406.24 50.1029 2.00399 406.24
463 1 51.8366 2.01382 404.371 51.8366 2.01382 404.371
461 1 50.9702 4.22224 405.3 50.9702 4.22224 405.3
464 1 52.4794 2.7398 406.74 52.4794 2.7398 406.74
465 1 53.3449 0.529405 405.799 53.3449 0.529405 405.799
468 1 55.0763 0.53737 403.926 55.0763 0.53737 403.926
466 1 54.2149 2.74934 404.864 54.2149 2.74934 404.864
469 1 55.7196 1.265 406.301 55.7196 1.265 406.301
467 1 54.8542 3.47473 407.238 54.8542 3.47473 407.238
470 1 56.5868 3.48326 405.36 56.5868 3.48326 405.36
472 1 57.4532 1.27485 404.432 57.4532 1.27485 404.432
475 1 59.8314 2.01041 404.924 59.8314 2.01041 404.924
473 1 58.0961 2.00087 406.8 58.0961 2.00087 406.8
474 1 58.9615 4.21793 405.86 58.9615 4.21793 405.86
477 1 60.6928 4.2259 403.987 60.6928 4.2259 403.987
481 1 63.0697 0.535943 404.492 63.0697 0.535943 404.492
478 1 61.3363 0.526111 406.362 61.3363 0.526111 406.362
479 1 62.2034 2.74436 405.421 62.2034 2.74436 405.421
482 1 63.7128 1.262 406.861 63.7128 1.262 406.861
476 1 60.4709 2.73585 407.299 60.4709 2.73585 407.299
483 1 64.5781 3.47905 405.92 64.5781 3.47905 405.92
486 1 66.3093 3.48696 404.047 66.3093 3.48696 404.047
488 1 67.82 2.0054 405.481 67.82 2.0054 405.481
484 1 65.448 1.2715 404.985 65.448 1.2715 404.985
487 1 66.9529 4.21466 406.422 66.9529 4.21466 406.422
485 1 66.0876 1.99698 407.359 66.0876 1.99698 407.359
490 1 68.6863 4.22439 404.552 68.6863 4.22439 404.552
493 1 70.1948 2.73996 405.98 70.1948 2.73996 405.98
491 1 69.3296 0.52301 406.921 69.3296 0.52301 406.921
494 1 71.0648 0.53236 405.044 71.0648 0.53236 405.044
492 1 69.5483 2.00826 403.602 69.5483 2.00826 403.602
496 1 71.9258 2.74767 404.107 71.9258 2.74767 404.107
497 1 72.5697 3.47497 406.481 72.5697 3.47497 406.481
500 1 74.3033 3.48369 404.61 74.3033 3.48369 404.61
498 1 73.4376 1.26535 405.539 73.4376 1.26535 405.539
502 1 75.168 1.26685 403.656 75.168 1.26685 403.656
501 1 74.9438 4.21173 406.982 74.9438 4.21173 406.982
503 1 75.8092 2.00138 406.041 75.8092 2.00138 406.041
506 1 77.538 2.01022 404.168 77.538 2.01022 404.168
507 1 78.1836 2.74085 406.544 78.1836 2.74085 406.544
504 1 76.6756 4.22153 405.108 76.6756 4.22153 405.108
508 1 79.0492 0.533425 405.607 79.0492 0.533425 405.607
510 1 79.9175 2.75349 404.672 79.9175 2.75349 404.672
512 1 80.7805 0.541646 403.736 80.7805 0.541646 403.736
514 1 82.2921 3.48615 405.168 82.2921 3.48615 405.168
516 1 83.1595 1.27708 404.24 83.1595 1.27708 404.24
513 1 81.4249 1.26838 406.109 81.4249 1.26838 406.109
511 1 80.5591 3.47787 407.045 80.5591 3.47787 407.045
517 1 83.8026 2.00348 406.607 83.8026 2.00348 406.607
523 1 87.0433 0.52826 406.168 87.0433 0.52826 406.168
520 1 85.5382 2.01238 404.732 85.5382 2.01238 404.732
518 1 84.6681 4.22006 405.667 84.6681 4.22006 405.667
522 1 86.3992 4.22784 403.794 86.3992 4.22784 403.794
521 1 86.1781 2.7382 407.105 86.1781 2.7382 407.105
526 1 88.7763 0.537955 404.299 88.7763 0.537955 404.299
528 1 90.2852 3.48134 405.726 90.2852 3.48134 405.726
524 1 87.9103 2.74644 405.227 87.9103 2.74644 405.227
529 1 91.1547 1.27361 404.791 91.1547 1.27361 404.791
527 1 89.4202 1.26443 406.667 89.4202 1.26443 406.667
536 1 95.0374 0.526613 406.727 95.0374 0.526613 406.727
531 1 92.0157 3.48884 403.854 92.0157 3.48884 403.854
533 1 93.5269 2.00787 405.287 93.5269 2.00787 405.287
532 1 92.6602 4.21738 406.228 92.6602 4.21738 406.228
535 1 94.3929 4.22653 404.359 94.3929 4.22653 404.359
530 1 91.7952 1.99988 407.165 91.7952 1.99988 407.165
538 1 96.7716 0.535268 404.852 96.7716 0.535268 404.852
541 1 98.2776 3.48098 406.289 98.2776 3.48098 406.289
540 1 97.632 2.75 403.915 97.632 2.75 403.915
537 1 95.9021 2.7433 405.787 95.9021 2.7433 405.787
539 1 97.413 1.26326 407.225 97.413 1.26326 407.225
546 1 101.525 2.00814 405.842 101.525 2.00814 405.842
544 1 100.008 3.49071 404.422 100.008 3.49071 404.422
542 1 99.1439 1.27179 405.349 99.1439 1.27179 405.349
547 1 102.394 4.22813 404.907 102.394 4.22813 404.907
545 1 100.658 4.21829 406.784 100.658 4.21829 406.784
553 1 105.635 2.74994 404.461 105.635 2.74994 404.461
550 1 103.902 2.7417 406.338 103.902 2.7417 406.338
554 1 106.278 3.47803 406.833 106.278 3.47803 406.833
549 1 103.261 2.01625 403.964 103.261 2.01625 403.964
551 1 104.769 0.532039 405.397 104.769 0.532039 405.397
548 1 103.036 0.524508 407.278 103.036 0.524508 407.278
560 1 -60.9601 0.514887 409.709 -60.9601 0.514887 409.709
558 1 -62.4678 1.99642 408.271 -62.4678 1.99642 408.271
562 1 -60.0945 2.73448 408.77 -60.0945 2.73448 408.77
559 1 -61.8258 2.7232 410.647 -61.8258 2.7232 410.647
556 1 -63.3337 4.20491 409.21 -63.3337 4.20491 409.21
273 1 -59.2297 0.527025 407.832 -59.2297 0.527025 407.832
565 1 -57.72 3.47047 409.271 -57.72 3.47047 409.271
568 1 -56.2112 1.9873 410.71 -56.2112 1.9873 410.71
567 1 -56.8534 1.26133 408.335 -56.8534 1.26133 408.335
564 1 -58.5861 1.25164 410.209 -58.5861 1.25164 410.209
563 1 -59.4518 3.46003 411.147 -59.4518 3.46003 411.147
573 1 -52.9675 0.512441 410.276 -52.9675 0.512441 410.276
571 1 -54.4761 1.99456 408.839 -54.4761 1.99456 408.839
283 1 -53.607 4.21039 407.902 -53.607 4.21039 407.902
569 1 -55.3441 4.20499 409.773 -55.3441 4.20499 409.773
574 1 -52.0991 2.72969 409.342 -52.0991 2.72969 409.342
572 1 -53.8353 2.72261 411.212 -53.8353 2.72261 411.212
576 1 -51.2308 0.51915 408.405 -51.2308 0.51915 408.405
578 1 -49.7229 3.46587 409.843 -49.7229 3.46587 409.843
289 1 -50.3626 2.73768 407.47 -50.3626 2.73768 407.47
580 1 -48.8552 1.2563 408.907 -48.8552 1.2563 408.907
577 1 -50.591 1.24809 410.779 -50.591 1.24809 410.779
293 1 -47.9879 3.47492 407.971 -47.9879 3.47492 407.971
299 1 -44.7445 2.00116 407.533 -44.7445 2.00116 407.533
583 1 -46.4792 1.99247 409.407 -46.4792 1.99247 409.407
585 1 -45.6118 4.21064 408.47 -45.6118 4.21064 408.47
582 1 -47.3468 4.20184 410.344 -47.3468 4.20184 410.344
586 1 -44.9709 0.509854 410.843 -44.9709 0.509854 410.843
589 1 -43.236 0.518433 408.97 -43.236 0.518433 408.97
591 1 -41.7278 3.46307 410.406 -41.7278 3.46307 410.406
303 1 -42.3691 2.73607 408.032 -42.3691 2.73607 408.032
587 1 -44.1035 2.72777 409.906 -44.1035 2.72777 409.906
592 1 -40.8603 1.25366 409.469 -40.8603 1.25366 409.469
309 1 -39.1259 1.26214 407.594 -39.1259 1.26214 407.594