ITEM: TIMESTEP
0
ITEM: NUMBER OF ATOMS
4630
ITEM: BOX BOUNDS xy xz yz pp pp pp
-6.3952200218337708e+01 1.0697123206653771e+02 0.0000000000000000e+00
0.0000000000000000e+00 4.4274527100805940e+00 0.0000000000000000e+00
3.8000000000000000e+02 5.0000000000000000e+02 0.0000000000000000e+00
ITEM: ATOMS id type x y z xu yu zu
27 1 -46.0681 1.99642 399.705 -46.0681 1.99642 399.705
36 1 -40.4261 1.2557 399.764 -40.4261 1.2557 399.764
31 1 -43.6697 2.69406 400.143 -43.6697 2.69406 400.143
22 1 -49.2878 3.44678 400.109 -49.2878 3.44678 400.109
20 1 -50.1775 1.22415 400.95 -50.1775 1.22415 400.95
40 1 -38.0296 1.95451 400.204 -38.0296 1.95451 400.204
34 1 -41.2928 3.45394 400.593 -41.2928 3.45394 400.593
17 1 -52.5584 0.474514 400.506 -52.5584 0.474514 400.506
9 1 -58.1687 1.16762 400.415 -58.1687 1.16762 400.415
43 1 -35.6534 2.71517 400.655 -35.6534 2.71517 400.655
12 1 -55.8173 1.97408 400.894 -55.8173 1.97408 400.894
5 1 -60.5593 0.485365 399.952 -60.5593 0.485365 399.952
29 1 -44.5367 0.465399 400.994 -44.5367 0.465399 400.994
853 1 -57.6088 2.66187 415.016 -57.6088 2.66187 415.016
873 1 -46.3282 1.18666 415.148 -46.3282 1.18666 415.148
865 1 -50.4556 0.445816 416.516 -50.4556 0.445816 416.516
1174 1 -37.6593 1.91595 418.079 -37.6593 1.91595 418.079
883 1 -40.6869 0.447699 415.213 -40.6869 0.447699 415.213
863 1 -51.9699 1.92534 415.081 -51.9699 1.92534 415.081
315 1 -35.8806 1.21413 403.934 -35.8806 1.21413 403.934
307 1 -40.8743 2.68474 406.242 -40.8743 2.68474 406.242
1150 1 -52.1966 0.44059 418.384 -52.1966 0.44059 418.384
855 1 -56.0949 1.18266 416.45 -56.0949 1.18266 416.45
310 1 -39.1328 2.69138 404.378 -39.1328 2.69138 404.378
871 1 -47.1994 3.39822 416.082 -47.1994 3.39822 416.082
16 1 -53.4255 2.67285 401.357 -53.4255 2.67285 401.357
309 1 -39.3597 1.20521 407.673 -39.3597 1.20521 407.673
1156 1 -48.9413 3.39363 417.95 -48.9413 3.39363 417.95
867 1 -49.5847 2.66191 415.582 -49.5847 2.66191 415.582
1159 1 -46.5562 4.13002 418.45 -46.5562 4.13002 418.45
1168 1 -40.9151 3.39107 418.514 -40.9151 3.39107 418.514
1170 1 -40.0441 1.17957 417.58 -40.0441 1.17957 417.58
594 1 -40.2306 3.41644 408.609 -40.2306 3.41644 408.609
37 1 -39.7755 1.96002 402.035 -39.7755 1.96002 402.035
851 1 -58.4787 0.445132 415.951 -58.4787 0.445132 415.951
857 1 -55.2249 3.39932 415.515 -55.2249 3.39932 415.515
592 1 -41.1013 1.20035 409.543 -41.1013 1.20035 409.543
849 1 -59.3487 2.65591 416.886 -59.3487 2.65591 416.886
877 1 -43.943 1.92289 415.648 -43.943 1.92289 415.648
1143 1 -56.9649 3.39345 417.385 -56.9649 3.39345 417.385
1140 1 -58.705 3.38766 419.255 -58.705 3.38766 419.255
845 1 -61.7323 1.91838 416.387 -61.7323 1.91838 416.387
875 1 -44.8141 4.13445 416.582 -44.8141 4.13445 416.582
886 1 -38.945 0.452315 413.344 -38.945 0.452315 413.344
891 1 -35.6897 3.40494 412.908 -35.6897 3.40494 412.908
39 1 -38.2665 0.473032 403.429 -38.2665 0.473032 403.429
1177 1 -36.1456 0.436363 419.513 -36.1456 0.436363 419.513
1167 1 -41.7861 1.17512 419.449 -41.7861 1.17512 419.449
8 1 -59.0464 3.42179 401.369 -59.0464 3.42179 401.369
869 1 -48.0704 1.18227 417.016 -48.0704 1.18227 417.016
1136 1 -61.0888 2.6502 418.756 -61.0888 2.6502 418.756
1162 1 -45.042 2.65031 419.883 -45.042 2.65031 419.883
15 1 -54.2995 0.477594 402.34 -54.2995 0.477594 402.34
280 1 -56.0455 0.469526 404.183 -56.0455 0.469526 404.183
277 1 -57.7997 0.476364 406.041 -57.7997 0.476364 406.041
273 1 -59.5424 0.470568 407.905 -59.5424 0.470568 407.905
560 1 -61.2801 0.461807 409.776 -61.2801 0.461807 409.776
557 1 -63.0192 0.454915 411.648 -63.0192 0.454915 411.648
26 1 -46.2804 0.482468 402.87 -46.2804 0.482468 402.87
294 1 -48.0262 0.47896 404.747 -48.0262 0.47896 404.747
291 1 -49.769 0.469151 406.612 -49.769 0.469151 406.612
576 1 -51.5116 0.463439 408.479 -51.5116 0.463439 408.479
573 1 -53.256 0.460642 410.345 -53.256 0.460642 410.345
570 1 -54.9985 0.456747 412.212 -54.9985 0.456747 412.212
854 1 -56.7389 0.451144 414.081 -56.7389 0.451144 414.081
305 1 -41.7438 0.468943 407.176 -41.7438 0.468943 407.176
589 1 -43.486 0.464087 409.045 -43.486 0.464087 409.045
586 1 -45.2283 0.459215 410.913 -45.2283 0.459215 410.913
872 1 -46.9709 0.454666 412.781 -46.9709 0.454666 412.781
599 1 -37.2033 0.457138 411.475 -37.2033 0.457138 411.475
1132 1 -63.4726 1.91284 418.257 -63.4726 1.91284 418.257
4 1 -60.8388 3.44915 403.155 -60.8388 3.44915 403.155
268 1 -62.5689 3.42699 405.026 -62.5689 3.42699 405.026
1152 1 -51.3262 2.65699 417.45 -51.3262 2.65699 417.45
19 1 -51.059 3.417 401.872 -51.059 3.417 401.872
286 1 -52.7912 3.41596 403.731 -52.7912 3.41596 403.731
282 1 -54.5337 3.41817 405.608 -54.5337 3.41817 405.608
279 1 -56.2836 3.42013 407.473 -56.2836 3.42013 407.473
565 1 -58.0272 3.41692 409.34 -58.0272 3.41692 409.34
563 1 -59.7664 3.40999 411.211 -59.7664 3.40999 411.211
846 1 -61.5058 3.40337 413.082 -61.5058 3.40337 413.082
32 1 -43.0267 3.42912 402.458 -43.0267 3.42912 402.458
300 1 -44.7713 3.42968 404.318 -44.7713 3.42968 404.318
297 1 -46.5146 3.42418 406.18 -46.5146 3.42418 406.18
293 1 -48.2559 3.41842 408.047 -48.2559 3.41842 408.047
578 1 -49.9984 3.4131 409.914 -49.9984 3.4131 409.914
575 1 -51.742 3.40918 411.78 -51.742 3.40918 411.78
860 1 -53.4843 3.4048 413.647 -53.4843 3.4048 413.647
591 1 -41.9724 3.4116 410.477 -41.9724 3.4116 410.477
588 1 -43.7145 3.40697 412.346 -43.7145 3.40697 412.346
874 1 -45.4569 3.40253 414.214 -45.4569 3.40253 414.214
10 1 -57.5517 1.93613 402.758 -57.5517 1.93613 402.758
274 1 -59.3189 1.96019 404.599 -59.3189 1.96019 404.599
271 1 -61.0569 1.95035 406.466 -61.0569 1.95035 406.466
558 1 -62.793 1.94022 408.341 -62.793 1.94022 408.341
24 1 -47.8126 1.95286 401.465 -47.8126 1.95286 401.465
21 1 -49.546 1.955 403.308 -49.546 1.955 403.308
288 1 -51.28 1.94653 405.18 -51.28 1.94653 405.18
285 1 -53.0234 1.94133 407.047 -53.0234 1.94133 407.047
571 1 -54.77 1.93998 408.91 -54.77 1.93998 408.91
568 1 -56.5129 1.93657 410.776 -56.5129 1.93657 410.776
852 1 -58.2527 1.93054 412.646 -58.2527 1.93054 412.646
848 1 -59.9923 1.92427 414.516 -59.9923 1.92427 414.516
306 1 -41.5191 1.95233 403.873 -41.5191 1.95233 403.873
302 1 -43.2583 1.94789 405.74 -43.2583 1.94789 405.74
299 1 -44.9999 1.94395 407.611 -44.9999 1.94395 407.611
583 1 -46.742 1.93893 409.48 -46.742 1.93893 409.48
581 1 -48.4847 1.93405 411.347 -48.4847 1.93405 411.347
866 1 -50.2278 1.92988 413.214 -50.2278 1.92988 413.214
880 1 -42.2007 1.92733 413.779 -42.2007 1.92733 413.779
312 1 -37.6194 1.2098 405.802 -37.6194 1.2098 405.802
2 1 -62.366 0.502407 401.72 -62.366 0.502407 401.72
13 1 -55.1655 2.68465 403.236 -55.1655 2.68465 403.236
278 1 -56.9206 2.68629 405.108 -56.9206 2.68629 405.108
275 1 -58.672 2.68817 406.969 -58.672 2.68817 406.969
562 1 -60.4108 2.67971 408.84 -60.4108 2.67971 408.84
559 1 -62.1494 2.67188 410.712 -62.1494 2.67188 410.712
1166 1 -42.657 3.38661 420.383 -42.657 3.38661 420.383
889 1 -36.5605 1.18881 413.843 -36.5605 1.18881 413.843
28 1 -45.413 2.69848 401.976 -45.413 2.69848 401.976
296 1 -47.1592 2.69283 403.812 -47.1592 2.69283 403.812
292 1 -48.8988 2.68774 405.678 -48.8988 2.68774 405.678
289 1 -50.6395 2.6801 407.547 -50.6395 2.6801 407.547
574 1 -52.3837 2.67596 409.413 -52.3837 2.67596 409.413
572 1 -54.1277 2.67277 411.278 -54.1277 2.67277 411.278
856 1 -55.8689 2.66783 413.146 -55.8689 2.66783 413.146
303 1 -42.6154 2.67984 408.11 -42.6154 2.67984 408.11
587 1 -44.3572 2.67527 409.979 -44.3572 2.67527 409.979
584 1 -46.0995 2.6706 411.847 -46.0995 2.6706 411.847
870 1 -47.8423 2.66625 413.714 -47.8423 2.66625 413.714
6 1 -59.9517 1.22962 402.238 -59.9517 1.22962 402.238
270 1 -61.7042 1.22353 404.085 -61.7042 1.22353 404.085
267 1 -63.4353 1.20831 405.967 -63.4353 1.20831 405.967
890 1 -35.9176 1.92057 416.21 -35.9176 1.92057 416.21
18 1 -51.9152 1.20589 402.82 -51.9152 1.20589 402.82
284 1 -53.6597 1.20677 404.684 -53.6597 1.20677 404.684
281 1 -55.4095 1.20586 406.545 -55.4095 1.20586 406.545
567 1 -57.1567 1.20593 408.407 -57.1567 1.20593 408.407
564 1 -58.897 1.19985 410.276 -58.897 1.19985 410.276
561 1 -60.6361 1.19286 412.146 -60.6361 1.19286 412.146
844 1 -62.3758 1.18663 414.017 -62.3758 1.18663 414.017
33 1 -42.1763 1.21483 401.519 -42.1763 1.21483 401.519
30 1 -43.9047 1.2112 403.369 -43.9047 1.2112 403.369
298 1 -45.6431 1.21292 405.242 -45.6431 1.21292 405.242
295 1 -47.3847 1.20791 407.113 -47.3847 1.20791 407.113
580 1 -49.127 1.20163 408.98 -49.127 1.20163 408.98
577 1 -50.8703 1.19721 410.847 -50.8703 1.19721 410.847
862 1 -52.6134 1.19337 412.713 -52.6134 1.19337 412.713
590 1 -42.8434 1.1956 411.412 -42.8434 1.1956 411.412
876 1 -44.5857 1.191 413.28 -44.5857 1.191 413.28
1163 1 -44.1711 0.438845 418.949 -44.1711 0.438845 418.949
1153 1 -50.6824 3.38853 419.818 -50.6824 3.38853 419.818
311 1 -38.4887 3.42207 406.74 -38.4887 3.42207 406.74
42 1 -36.5375 0.475883 401.581 -36.5375 0.475883 401.581
1135 1 -61.9589 0.433704 419.691 -61.9589 0.433704 419.691
1171 1 -39.4012 1.91144 419.948 -39.4012 1.91144 419.948
1139 1 -59.5751 1.1711 420.19 -59.5751 1.1711 420.19
601 1 -36.3327 2.67328 410.54 -36.3327 2.67328 410.54
313 1 -36.7455 3.42805 404.87 -36.7455 3.42805 404.87
858 1 -54.3547 1.18841 414.581 -54.3547 1.18841 414.581
868 1 -48.7136 0.45041 414.648 -48.7136 0.45041 414.648
1147 1 -54.5809 4.13088 417.884 -54.5809 4.13088 417.884
843 1 -63.2459 3.39747 414.953 -63.2459 3.39747 414.953
593 1 -40.4587 1.93195 411.911 -40.4587 1.93195 411.911
308 1 -40.0031 0.473941 405.303 -40.0031 0.473941 405.303
861 1 -52.8405 4.13649 416.016 -52.8405 4.13649 416.016
1158 1 -47.427 1.91395 419.384 -47.427 1.91395 419.384
884 1 -39.8159 2.66371 414.278 -39.8159 2.66371 414.278
881 1 -41.558 2.65919 416.147 -41.558 2.65919 416.147
885 1 -39.1731 3.39555 416.646 -39.1731 3.39555 416.646
859 1 -53.7108 1.91999 416.95 -53.7108 1.91999 416.95
596 1 -38.717 1.93671 410.041 -38.717 1.93671 410.041
879 1 -42.429 0.443249 417.081 -42.429 0.443249 417.081
1172 1 -38.5303 4.12741 419.014 -38.5303 4.12741 419.014
1154 1 -49.8119 1.17742 418.884 -49.8119 1.17742 418.884
887 1 -38.3022 1.18411 415.712 -38.3022 1.18411 415.712
597 1 -38.0741 2.6684 412.409 -38.0741 2.6684 412.409
1161 1 -45.6852 1.91854 417.515 -45.6852 1.91854 417.515
1138 1 -60.2187 0.439297 417.821 -60.2187 0.439297 417.821
1149 1 -53.0668 2.65154 419.319 -53.0668 2.65154 419.319
41 1 -37.3884 2.69054 402.519 -37.3884 2.69054 402.519
888 1 -37.4313 3.40015 414.777 -37.4313 3.40015 414.777
1165 1 -43.3001 2.65478 418.015 -43.3001 2.65478 418.015
1141 1 -57.8349 1.17681 418.32 -57.8349 1.17681 418.32
1145 1 -55.451 1.91427 418.819 -55.451 1.91427 418.819
600 1 -36.976 1.94159 408.172 -36.976 1.94159 408.172
1148 1 -53.937 0.435001 420.253 -53.937 0.435001 420.253
882 1 -41.3297 4.14333 412.845 -41.3297 4.14333 412.845
1157 1 -48.2977 4.12523 420.318 -48.2977 4.12523 420.318
1144 1 -56.3211 4.12512 419.754 -56.3211 4.12512 419.754
602 1 -35.4619 0.46219 409.605 -35.4619 0.46219 409.605
1131 1 -63.6993 0.42831 421.561 -63.6993 0.42831 421.561
1755 1 -35.9579 2.62733 428.485 -35.9579 2.62733 428.485
1460 1 -40.4998 2.63873 424.184 -40.4998 2.63873 424.184
2308 1 -50.3009 3.34006 437.768 -50.3009 3.34006 437.768
2316 1 -45.306 1.87098 435.462 -45.306 1.87098 435.462
2312 1 -47.9168 4.07693 438.267 -47.9168 4.07693 438.267
1464 1 -38.115 3.37512 424.683 -38.115 3.37512 424.683
1461 1 -39.629 0.427296 423.25 -39.629 0.427296 423.25
2039 1 -38.7967 3.34946 434.591 -38.7967 3.34946 434.591
2613 1 -40.7643 1.85986 439.763 -40.7643 1.85986 439.763
1467 1 -35.7304 4.11154 425.183 -35.7304 4.11154 425.183
2603 1 -46.4029 2.59744 439.7 -46.4029 2.59744 439.7
1443 1 -50.0386 4.12005 422.187 -50.0386 4.12005 422.187
1748 1 -39.8565 3.37047 426.552 -39.8565 3.37047 426.552
2023 1 -47.6902 1.13417 434.963 -47.6902 1.13417 434.963
2310 1 -48.787 1.8606 439.201 -48.787 1.8606 439.201
1151 1 -51.5527 1.17211 420.753 -51.5527 1.17211 420.753
2303 1 -53.5552 0.386755 438.204 -53.5552 0.386755 438.204
2299 1 -55.9393 4.07718 437.705 -55.9393 4.07718 437.705
2033 1 -42.0514 0.396553 435.027 -42.0514 0.396553 435.027
1433 1 -55.6773 0.429347 422.123 -55.6773 0.429347 422.123
1430 1 -57.4176 0.423755 423.992 -57.4176 0.423755 423.992
1426 1 -59.1579 0.418256 425.862 -59.1579 0.418256 425.862
1713 1 -60.8982 0.412845 427.732 -60.8982 0.412845 427.732
1710 1 -62.6386 0.40751 429.602 -62.6386 0.40751 429.602
2330 1 -36.6393 2.60165 438.393 -36.6393 2.60165 438.393
1160 1 -45.9128 0.434252 420.817 -45.9128 0.434252 420.817
1447 1 -47.654 0.42933 422.686 -47.654 0.42933 422.686
1444 1 -49.3948 0.424129 424.555 -49.3948 0.424129 424.555
1730 1 -51.1353 0.418777 426.424 -51.1353 0.418777 426.424
1727 1 -52.8758 0.413373 428.294 -52.8758 0.413373 428.294
1724 1 -54.6162 0.407969 430.163 -54.6162 0.407969 430.163
2008 1 -56.3566 0.402588 432.033 -56.3566 0.402588 432.033
2006 1 -58.0969 0.397236 433.903 -58.0969 0.397236 433.903
1458 1 -41.3705 0.422665 425.119 -41.3705 0.422665 425.119
1743 1 -43.1117 0.417857 426.987 -43.1117 0.417857 426.987
1740 1 -44.8526 0.412868 428.856 -44.8526 0.412868 428.856
2026 1 -46.5933 0.407744 430.726 -46.5933 0.407744 430.726
2022 1 -48.3339 0.402537 432.595 -48.3339 0.402537 432.595
2019 1 -50.0744 0.397287 434.465 -50.0744 0.397287 434.465
2309 1 -49.4307 1.12895 436.833 -49.4307 1.12895 436.833
1137 1 -60.4452 3.38204 421.125 -60.4452 3.38204 421.125
1421 1 -62.1855 3.37659 422.995 -62.1855 3.37659 422.995
1439 1 -52.423 3.38309 421.687 -52.423 3.38309 421.687
1435 1 -54.1633 3.37753 423.557 -54.1633 3.37753 423.557
1432 1 -55.9037 3.37199 425.426 -55.9037 3.37199 425.426
1719 1 -57.644 3.36651 427.296 -57.644 3.36651 427.296
1716 1 -59.3844 3.36109 429.166 -59.3844 3.36109 429.166
2001 1 -61.1247 3.35573 431.035 -61.1247 3.35573 431.035
1998 1 -62.8651 3.35042 432.905 -62.8651 3.35042 432.905
2323 1 -40.5375 3.34446 436.46 -40.5375 3.34446 436.46
1453 1 -44.3986 3.38201 422.251 -44.3986 3.38201 422.251
1450 1 -46.1398 3.37714 424.12 -46.1398 3.37714 424.12
1446 1 -47.8807 3.37203 425.989 -47.8807 3.37203 425.989
1732 1 -49.6213 3.36677 427.858 -49.6213 3.36677 427.858
1729 1 -51.3618 3.36144 429.728 -51.3618 3.36144 429.728
2014 1 -53.1023 3.35609 431.597 -53.1023 3.35609 431.597
2011 1 -54.8426 3.35074 433.467 -54.8426 3.35074 433.467
1745 1 -41.5976 3.36568 428.421 -41.5976 3.36568 428.421
1742 1 -43.3386 3.36073 430.29 -43.3386 3.36073 430.29
2028 1 -45.0793 3.35566 432.159 -45.0793 3.35566 432.159
2025 1 -46.82 3.3505 434.029 -46.82 3.3505 434.029
1427 1 -58.9314 1.90292 422.559 -58.9314 1.90292 422.559
1424 1 -60.6717 1.89743 424.428 -60.6717 1.89743 424.428
1711 1 -62.4121 1.89205 426.298 -62.4121 1.89205 426.298
2322 1 -41.4079 1.1282 437.395 -41.4079 1.1282 437.395
1750 1 -38.3425 1.89085 427.986 -38.3425 1.89085 427.986
1155 1 -49.1682 1.90895 421.252 -49.1682 1.90895 421.252
1441 1 -50.9089 1.90364 423.121 -50.9089 1.90364 423.121
1438 1 -52.6493 1.89819 424.991 -52.6493 1.89819 424.991
1725 1 -54.3897 1.89271 426.86 -54.3897 1.89271 426.86
1722 1 -56.1301 1.88726 428.73 -56.1301 1.88726 428.73
1718 1 -57.8705 1.88185 430.599 -57.8705 1.88185 430.599
2003 1 -59.6108 1.87649 432.469 -59.6108 1.87649 432.469
2000 1 -61.3511 1.87116 434.339 -61.3511 1.87116 434.339
1459 1 -41.143 1.90695 421.816 -41.143 1.90695 421.816
1455 1 -42.8845 1.90233 423.685 -42.8845 1.90233 423.685
1452 1 -44.6257 1.8975 425.554 -44.6257 1.8975 425.554
1737 1 -46.3666 1.89246 427.423 -46.3666 1.89246 427.423
1735 1 -48.1073 1.88727 429.292 -48.1073 1.88727 429.292
2020 1 -49.8479 1.882 431.161 -49.8479 1.882 431.161
2017 1 -51.5883 1.87671 433.031 -51.5883 1.87671 433.031
2034 1 -41.8246 1.88114 431.724 -41.8246 1.88114 431.724
2031 1 -43.5654 1.8761 433.593 -43.5654 1.8761 433.593
2029 1 -44.4357 4.08728 434.528 -44.4357 4.08728 434.528
1146 1 -54.8072 2.6459 421.188 -54.8072 2.6459 421.188
1431 1 -56.5474 2.64027 423.058 -56.5474 2.64027 423.058
1428 1 -58.2877 2.63472 424.927 -58.2877 2.63472 424.927
1715 1 -60.0281 2.62927 426.797 -60.0281 2.62927 426.797
1712 1 -61.7684 2.6239 428.667 -61.7684 2.6239 428.667
1708 1 -63.5088 2.61859 430.537 -63.5088 2.61859 430.537
1747 1 -40.0836 1.88607 429.855 -40.0836 1.88607 429.855
1449 1 -46.7834 2.64556 421.752 -46.7834 2.64556 421.752
1445 1 -48.5244 2.64048 423.621 -48.5244 2.64048 423.621
1442 1 -50.2651 2.63519 425.49 -50.2651 2.63519 425.49
1728 1 -52.0056 2.6298 427.359 -52.0056 2.6298 427.359
1726 1 -53.746 2.6244 429.229 -53.746 2.6244 429.229
2010 1 -55.4864 2.619 431.098 -55.4864 2.619 431.098
2007 1 -57.2267 2.61363 432.968 -57.2267 2.61363 432.968
1456 1 -42.2411 2.63401 426.053 -42.2411 2.63401 426.053
1741 1 -43.9822 2.62911 427.922 -43.9822 2.62911 427.922
1738 1 -45.723 2.62405 429.791 -45.723 2.62405 429.791
2024 1 -47.4636 2.61887 431.66 -47.4636 2.61887 431.66
2021 1 -49.2042 2.61364 433.53 -49.2042 2.61364 433.53
2035 1 -41.1811 2.6128 434.092 -41.1811 2.6128 434.092
1754 1 -36.6011 1.89551 426.117 -36.6011 1.89551 426.117
1423 1 -61.3153 1.16557 422.06 -61.3153 1.16557 422.06
1420 1 -63.0557 1.16018 423.93 -63.0557 1.16018 423.93
2044 1 -35.5419 1.87481 434.156 -35.5419 1.87481 434.156
1437 1 -53.2932 1.16659 422.622 -53.2932 1.16659 422.622
1434 1 -55.0335 1.16103 424.492 -55.0335 1.16103 424.492
1721 1 -56.7738 1.15551 426.361 -56.7738 1.15551 426.361
1717 1 -58.5142 1.15006 428.231 -58.5142 1.15006 428.231
1714 1 -60.2545 1.14467 430.1 -60.2545 1.14467 430.1
1999 1 -61.9949 1.13934 431.97 -61.9949 1.13934 431.97
1997 1 -63.7352 1.13405 433.84 -63.7352 1.13405 433.84
1164 1 -43.5279 1.17062 421.317 -43.5279 1.17062 421.317
1451 1 -45.2693 1.16588 423.185 -45.2693 1.16588 423.185
1448 1 -47.0103 1.16089 425.054 -47.0103 1.16089 425.054
1734 1 -48.751 1.15569 426.924 -48.751 1.15569 426.924
1731 1 -50.4916 1.15038 428.793 -50.4916 1.15038 428.793
2016 1 -52.232 1.14503 430.662 -52.232 1.14503 430.662
2012 1 -53.9725 1.13968 432.532 -53.9725 1.13968 432.532
2009 1 -55.7128 1.13435 434.402 -55.7128 1.13435 434.402
1746 1 -40.7271 1.15437 427.487 -40.7271 1.15437 427.487
1744 1 -42.4681 1.1495 429.356 -42.4681 1.1495 429.356
2030 1 -44.209 1.14448 431.225 -44.209 1.14448 431.225
2027 1 -45.9497 1.13936 433.094 -45.9497 1.13936 433.094
2325 1 -39.6671 1.13324 435.526 -39.6671 1.13324 435.526
1749 1 -39.2131 4.1022 428.92 -39.2131 4.1022 428.92
1425 1 -59.8016 4.11388 423.493 -59.8016 4.11388 423.493
1736 1 -47.237 4.1036 428.357 -47.237 4.1036 428.357
1142 1 -57.1912 1.90853 420.689 -57.1912 1.90853 420.689
1720 1 -57.0003 4.09828 429.665 -57.0003 4.09828 429.665
2005 1 -58.7406 4.09289 431.534 -58.7406 4.09289 431.534
2002 1 -60.481 4.08755 433.404 -60.481 4.08755 433.404
1169 1 -40.2721 4.12293 420.882 -40.2721 4.12293 420.882
1723 1 -55.2599 4.10371 427.795 -55.2599 4.10371 427.795
1440 1 -51.7791 4.11465 424.056 -51.7791 4.11465 424.056
1733 1 -48.9776 4.09837 430.227 -48.9776 4.09837 430.227
2018 1 -50.7181 4.09308 432.096 -50.7181 4.09308 432.096
2015 1 -52.4585 4.08778 433.966 -52.4585 4.08778 433.966
2036 1 -40.9541 4.09735 430.789 -40.9541 4.09735 430.789
2032 1 -42.695 4.09236 432.658 -42.695 4.09236 432.658
2326 1 -39.0236 1.86493 437.894 -39.0236 1.86493 437.894
1752 1 -37.4718 4.10692 427.051 -37.4718 4.10692 427.051
1457 1 -42.0138 4.11839 422.751 -42.0138 4.11839 422.751
2043 1 -36.1852 1.14304 431.788 -36.1852 1.14304 431.788
2286 1 -63.0915 1.86586 436.208 -63.0915 1.86586 436.208
2319 1 -43.1485 1.12309 439.264 -43.1485 1.12309 439.264
1436 1 -53.5195 4.10917 425.925 -53.5195 4.10917 425.925
1422 1 -61.5419 4.10845 425.363 -61.5419 4.10845 425.363
1173 1 -37.8873 0.431825 421.381 -37.8873 0.431825 421.381
2293 1 -59.1935 1.12372 438.141 -59.1935 1.12372 438.141
2289 1 -61.5775 0.386603 437.642 -61.5775 0.386603 437.642
2295 1 -57.6796 4.0719 439.575 -57.6796 4.0719 439.575
1465 1 -37.2442 1.16368 423.749 -37.2442 1.16368 423.749
2315 1 -45.5327 0.386304 438.766 -45.5327 0.386304 438.766
2331 1 -36.4124 4.0861 435.09 -36.4124 4.0861 435.09
2297 1 -56.8094 1.86082 438.64 -56.8094 1.86082 438.64
2324 1 -39.894 4.07613 438.829 -39.894 4.07613 438.829
2306 1 -51.1711 1.12371 438.703 -51.1711 1.12371 438.703
2285 1 -63.3178 0.381306 439.512 -63.3178 0.381306 439.512
1462 1 -38.9858 1.15909 425.618 -38.9858 1.15909 425.618
1751 1 -37.6991 2.62261 430.354 -37.6991 2.62261 430.354
2329 1 -37.2828 1.86992 436.025 -37.2828 1.86992 436.025
2042 1 -37.0558 3.35435 432.722 -37.0558 3.35435 432.722
2041 1 -37.9263 1.13819 433.657 -37.9263 1.13819 433.657
2593 1 -52.0413 3.33482 439.637 -52.0413 3.33482 439.637
2328 1 -37.5097 0.385416 439.328 -37.5097 0.385416 439.328
2301 1 -54.4254 2.59785 439.139 -54.4254 2.59785 439.139
1466 1 -36.3734 3.37968 422.815 -36.3734 3.37968 422.815
2298 1 -56.583 3.34541 435.336 -56.583 3.34541 435.336
2321 1 -42.2782 3.33938 438.33 -42.2782 3.33938 438.33
2313 1 -47.0466 1.86581 437.332 -47.0466 1.86581 437.332
2294 1 -58.3233 3.3401 437.206 -58.3233 3.3401 437.206
2304 1 -52.685 2.60311 437.269 -52.685 2.60311 437.269
2300 1 -55.0691 1.8661 436.77 -55.0691 1.8661 436.77
2290 1 -60.7074 2.60298 436.707 -60.7074 2.60298 436.707
2318 1 -43.7921 0.391457 436.896 -43.7921 0.391457 436.896
2327 1 -38.1532 4.08116 436.959 -38.1532 4.08116 436.959
2004 1 -58.9671 2.6083 434.838 -58.9671 2.6083 434.838
2013 1 -53.3287 1.8714 434.9 -53.3287 1.8714 434.9
2288 1 -62.2213 4.08224 435.274 -62.2213 4.08224 435.274
2037 1 -40.3106 0.401566 433.158 -40.3106 0.401566 433.158
1739 1 -45.4962 4.10873 426.488 -45.4962 4.10873 426.488
1753 1 -36.8285 0.411257 429.42 -36.8285 0.411257 429.42
2307 1 -50.9446 2.60838 435.399 -50.9446 2.60838 435.399
2314 1 -46.1763 4.08213 436.397 -46.1763 4.08213 436.397
2040 1 -38.5697 0.406471 431.288 -38.5697 0.406471 431.288
2320 1 -42.9218 2.60774 435.961 -42.9218 2.60774 435.961
2292 1 -59.8372 0.39191 435.772 -59.8372 0.39191 435.772
2311 1 -48.5605 3.34529 435.898 -48.5605 3.34529 435.898
2302 1 -54.1989 4.08248 435.835 -54.1989 4.08248 435.835
2296 1 -57.4532 1.12903 436.271 -57.4532 1.12903 436.271
1463 1 -38.7582 2.64329 422.316 -38.7582 2.64329 422.316
2287 1 -62.4477 2.59768 438.577 -62.4477 2.59768 438.577
2291 1 -60.0636 3.3348 439.076 -60.0636 3.3348 439.076
2317 1 -44.6624 2.60261 437.831 -44.6624 2.60261 437.831
2038 1 -39.4402 2.61776 432.223 -39.4402 2.61776 432.223
2305 1 -51.8148 0.392021 436.334 -51.8148 0.392021 436.334
2332 1 -35.7689 0.390401 437.459 -35.7689 0.390401 437.459
1709 1 -63.2823 4.10312 427.233 -63.2823 4.10312 427.233
1468 1 -35.5026 1.16823 421.881 -35.5026 1.16823 421.881
1454 1 -43.7552 4.11367 424.619 -43.7552 4.11367 424.619
1429 1 -58.0613 4.11944 421.624 -58.0613 4.11944 421.624
1133 1 -62.8291 2.64471 420.626 -62.8291 2.64471 420.626
1175 1 -37.0164 2.64781 420.447 -37.0164 2.64781 420.447
2616 1 -38.6068 1.11204 443.565 -38.6068 1.11204 443.565
2901 1 -40.3473 1.10688 445.435 -40.3473 1.10688 445.435
2907 1 -37.093 4.06002 444.999 -37.093 4.06002 444.999
3194 1 -38.1897 0.359087 449.237 -38.1897 0.359087 449.237
2587 1 -55.2955 0.3815 440.073 -55.2955 0.3815 440.073
2597 1 -49.6572 4.07172 440.136 -49.6572 4.07172 440.136
2584 1 -57.0358 0.376259 441.943 -57.0358 0.376259 441.943
2581 1 -58.7761 0.371025 443.813 -58.7761 0.371025 443.813
2868 1 -60.5163 0.365782 445.682 -60.5163 0.365782 445.682
2865 1 -62.2565 0.360509 447.552 -62.2565 0.360509 447.552
2601 1 -47.2731 0.381117 440.635 -47.2731 0.381117 440.635
2598 1 -49.0135 0.375916 442.505 -49.0135 0.375916 442.505
2885 1 -50.7539 0.370724 444.374 -50.7539 0.370724 444.374
2882 1 -52.4942 0.36556 446.244 -52.4942 0.36556 446.244
2879 1 -54.2346 0.360434 448.114 -54.2346 0.360434 448.114
2612 1 -40.9909 0.375228 443.066 -40.9909 0.375228 443.066
2898 1 -42.7314 0.370053 444.936 -42.7314 0.370053 444.936
2895 1 -44.4717 0.364851 446.805 -44.4717 0.364851 446.805
3180 1 -46.212 0.359653 448.675 -46.212 0.359653 448.675
2576 1 -61.8039 3.32951 440.945 -61.8039 3.32951 440.945
2574 1 -63.5441 3.32421 442.815 -63.5441 3.32421 442.815
2589 1 -53.7817 3.32959 441.507 -53.7817 3.32959 441.507
2586 1 -55.522 3.32439 443.377 -55.522 3.32439 443.377
2874 1 -57.2623 3.3192 445.246 -57.2623 3.3192 445.246
2871 1 -59.0025 3.31401 447.116 -59.0025 3.31401 447.116
3155 1 -60.7427 3.30881 448.986 -60.7427 3.30881 448.986
2607 1 -44.0187 3.33424 440.199 -44.0187 3.33424 440.199
2604 1 -45.7592 3.32907 442.069 -45.7592 3.32907 442.069
2600 1 -47.4996 3.32387 443.938 -47.4996 3.32387 443.938
2887 1 -49.24 3.31868 445.808 -49.24 3.31868 445.808
2884 1 -50.9803 3.31351 447.678 -50.9803 3.31351 447.678
3168 1 -52.7206 3.30839 449.547 -52.7206 3.30839 449.547
2900 1 -41.2175 3.31802 446.37 -41.2175 3.31802 446.37
2897 1 -42.9578 3.31281 448.239 -42.9578 3.31281 448.239
2582 1 -58.5497 1.85554 440.509 -58.5497 1.85554 440.509
2579 1 -60.29 1.85027 442.379 -60.29 1.85027 442.379
2866 1 -62.0302 1.84499 444.249 -62.0302 1.84499 444.249
2578 1 -60.9338 1.11843 440.011 -60.9338 1.11843 440.011
2595 1 -50.5274 1.85539 441.071 -50.5274 1.85539 441.071
2592 1 -52.2678 1.85018 442.941 -52.2678 1.85018 442.941
2880 1 -54.0081 1.84501 444.81 -54.0081 1.84501 444.81
2877 1 -55.7484 1.83986 446.68 -55.7484 1.83986 446.68
2873 1 -57.4887 1.83473 448.55 -57.4887 1.83473 448.55
2609 1 -42.5048 1.85473 441.633 -42.5048 1.85473 441.633
2606 1 -44.2453 1.84956 443.502 -44.2453 1.84956 443.502
2892 1 -45.9857 1.84436 445.372 -45.9857 1.84436 445.372
2890 1 -47.726 1.83916 447.242 -47.726 1.83916 447.242
3174 1 -49.4663 1.834 449.111 -49.4663 1.834 449.111
2618 1 -37.7365 3.32832 442.631 -37.7365 3.32832 442.631
2585 1 -56.1657 2.5926 441.008 -56.1657 2.5926 441.008
2583 1 -57.906 2.58737 442.878 -57.906 2.58737 442.878
2870 1 -59.6462 2.58213 444.748 -59.6462 2.58213 444.748
2867 1 -61.3864 2.57688 446.617 -61.3864 2.57688 446.617
2863 1 -63.1265 2.57158 448.487 -63.1265 2.57158 448.487
2599 1 -48.1433 2.59224 441.57 -48.1433 2.59224 441.57
2596 1 -49.8837 2.58704 443.44 -49.8837 2.58704 443.44
2883 1 -51.6241 2.58186 445.309 -51.6241 2.58186 445.309
2881 1 -53.3644 2.57672 447.179 -53.3644 2.57672 447.179
3164 1 -55.1047 2.57161 449.049 -55.1047 2.57161 449.049
2610 1 -41.8612 2.58637 444.001 -41.8612 2.58637 444.001
2896 1 -43.6016 2.58118 445.871 -43.6016 2.58118 445.871
2893 1 -45.3419 2.57598 447.74 -45.3419 2.57598 447.74
3178 1 -47.0822 2.57079 449.61 -47.0822 2.57079 449.61
2575 1 -62.674 1.11313 441.88 -62.674 1.11313 441.88
2591 1 -52.9115 1.11848 440.572 -52.9115 1.11848 440.572
2588 1 -54.6518 1.11326 442.442 -54.6518 1.11326 442.442
2876 1 -56.3921 1.10806 444.312 -56.3921 1.10806 444.312
2872 1 -58.1324 1.10288 446.181 -58.1324 1.10288 446.181
2869 1 -59.8726 1.09769 448.051 -59.8726 1.09769 448.051
2605 1 -44.889 1.11793 441.134 -44.889 1.11793 441.134
2602 1 -46.6294 1.11274 443.003 -46.6294 1.11274 443.003
2889 1 -48.3698 1.10754 444.873 -48.3698 1.10754 444.873
2886 1 -50.1101 1.10237 446.743 -50.1101 1.10237 446.743
3170 1 -51.8505 1.09722 448.612 -51.8505 1.09722 448.612
2899 1 -42.0876 1.10169 447.304 -42.0876 1.10169 447.304
3184 1 -43.8279 1.09648 449.174 -43.8279 1.09648 449.174
2580 1 -59.4199 4.06663 441.444 -59.4199 4.06663 441.444
2577 1 -61.1601 4.06136 443.314 -61.1601 4.06136 443.314
2864 1 -62.9003 4.05606 445.184 -62.9003 4.05606 445.184
2862 1 -63.7704 1.83967 446.118 -63.7704 1.83967 446.118
2594 1 -51.3976 4.06651 442.006 -51.3976 4.06651 442.006
2590 1 -53.1379 4.06132 443.876 -53.1379 4.06132 443.876
2878 1 -54.8783 4.05615 445.745 -54.8783 4.05615 445.745
2875 1 -56.6186 4.05102 447.615 -56.6186 4.05102 447.615
3159 1 -58.3588 4.0459 449.485 -58.3588 4.0459 449.485
2611 1 -41.6346 4.07103 440.698 -41.6346 4.07103 440.698
2608 1 -43.3751 4.06588 442.568 -43.3751 4.06588 442.568
2894 1 -45.1155 4.06069 444.437 -45.1155 4.06069 444.437
2891 1 -46.8558 4.05548 446.307 -46.8558 4.05548 446.307
2888 1 -48.5962 4.0503 448.176 -48.5962 4.0503 448.176
2904 1 -38.8334 4.05487 446.868 -38.8334 4.05487 446.868
2621 1 -35.9959 3.33338 440.761 -35.9959 3.33338 440.761
2617 1 -38.3801 2.59662 440.262 -38.3801 2.59662 440.262
2614 1 -40.1207 2.59152 442.132 -40.1207 2.59152 442.132
2908 1 -36.4494 0.364282 447.367 -36.4494 0.364282 447.367
2619 1 -36.8662 1.11713 441.696 -36.8662 1.11713 441.696
2906 1 -37.3195 2.57542 448.302 -37.3195 2.57542 448.302
2905 1 -37.9632 1.84372 445.934 -37.9632 1.84372 445.934
2620 1 -36.2227 1.84885 444.064 -36.2227 1.84885 444.064
3190 1 -40.5737 4.04967 448.738 -40.5737 4.04967 448.738
2902 1 -39.7036 1.83854 447.803 -39.7036 1.83854 447.803
2903 1 -39.4771 3.32319 444.5 -39.4771 3.32319 444.5
2615 1 -39.2504 0.380354 441.197 -39.2504 0.380354 441.197
2909 1 -35.5791 2.58059 446.433 -35.5791 2.58059 446.433
14 1 -54.9532 4.20416 400.065 -54.9532 4.20416 400.065
7 1 -59.6595 2.69884 399.154 -59.6595 2.69884 399.154
25 1 -46.9281 4.19447 400.538 -46.9281 4.19447 400.538
38 1 -38.8984 4.15301 401.054 -38.8984 4.15301 401.054
23 1 -48.6714 4.1735 402.402 -48.6714 4.1735 402.402
287 1 -52.152 4.15531 406.11 -52.152 4.15531 406.11
878 1 -43.0718 4.13881 414.713 -43.0718 4.13881 414.713
579 1 -49.3563 4.14571 412.281 -49.3563 4.14571 412.281
585 1 -45.8709 4.15525 408.546 -45.8709 4.15525 408.546
290 1 -50.4139 4.16109 404.241 -50.4139 4.16109 404.241
11 1 -56.6864 4.15454 401.836 -56.6864 4.15454 401.836
595 1 -39.5878 4.14804 410.976 -39.5878 4.14804 410.976
1134 1 -62.6024 4.1293 417.322 -62.6024 4.1293 417.322
283 1 -53.8968 4.15387 407.977 -53.8968 4.15387 407.977
582 1 -47.6133 4.15014 410.414 -47.6133 4.15014 410.414
276 1 -58.4399 4.16937 403.688 -58.4399 4.16937 403.688
569 1 -55.6419 4.15235 409.842 -55.6419 4.15235 409.842
847 1 -60.8623 4.135 415.451 -60.8623 4.135 415.451
556 1 -63.6626 4.15051 409.278 -63.6626 4.15051 409.278
272 1 -60.1911 4.17064 405.533 -60.1911 4.17064 405.533
3 1 -61.483 2.71313 400.834 -61.483 2.71313 400.834
35 1 -40.6416 4.17146 402.928 -40.6416 4.17146 402.928
598 1 -37.8462 4.15306 409.107 -37.8462 4.15306 409.107
850 1 -59.1225 4.14108 413.581 -59.1225 4.14108 413.581
304 1 -42.3839 4.16608 404.808 -42.3839 4.16608 404.808