ITEM: TIMESTEP
0
ITEM: NUMBER OF ATOMS
4630
ITEM: BOX BOUNDS xy xz yz pp pp pp
-6.3228103976925318e+01 1.0624713582512533e+02 0.0000000000000000e+00
0.0000000000000000e+00 4.4274527100805940e+00 0.0000000000000000e+00
3.8000000000000000e+02 5.0000000000000000e+02 0.0000000000000000e+00
ITEM: ATOMS id type x y z xu yu zu
27 1 -45.528 2.14688 399.493 -45.528 2.14688 399.493
36 1 -39.9295 1.40511 399.55 -39.9295 1.40511 399.55
31 1 -43.1378 2.84064 399.932 -43.1378 2.84064 399.932
22 1 -48.721 3.59246 399.901 -48.721 3.59246 399.901
20 1 -49.5941 1.37091 400.749 -49.5941 1.37091 400.749
40 1 -37.5416 2.10031 399.992 -37.5416 2.10031 399.992
34 1 -40.7802 3.60355 400.388 -40.7802 3.60355 400.388
17 1 -51.9557 0.619669 400.3 -51.9557 0.619669 400.3
9 1 -57.518 1.30951 400.212 -57.518 1.30951 400.212
43 1 -35.1851 2.86398 400.449 -35.1851 2.86398 400.449
12 1 -55.1884 2.12253 400.697 -55.1884 2.12253 400.697
5 1 -59.8998 0.638547 399.75 -59.8998 0.638547 399.75
29 1 -43.9979 0.611943 400.788 -43.9979 0.611943 400.788
853 1 -56.9483 2.75011 414.897 -56.9483 2.75011 414.897
873 1 -45.763 1.27419 415.022 -45.763 1.27419 415.022
865 1 -49.8543 0.527495 416.4 -49.8543 0.527495 416.4
1174 1 -37.1651 1.99105 417.966 -37.1651 1.99105 417.966
883 1 -40.1693 0.53491 415.084 -40.1693 0.53491 415.084
863 1 -51.357 2.01314 414.959 -51.357 2.01314 414.959
315 1 -35.4091 1.34759 403.745 -35.4091 1.34759 403.745
307 1 -40.3619 2.80956 406.065 -40.3619 2.80956 406.065
1150 1 -51.579 0.514336 418.28 -51.579 0.514336 418.28
855 1 -55.446 1.26476 416.338 -55.446 1.26476 416.338
310 1 -38.6359 2.82311 404.19 -38.6359 2.82311 404.19
871 1 -46.6261 3.48177 415.962 -46.6261 3.48177 415.962
16 1 -52.8138 2.81816 401.158 -52.8138 2.81816 401.158
309 1 -38.8586 1.32383 407.503 -38.8586 1.32383 407.503
1156 1 -48.3516 3.4692 417.841 -48.3516 3.4692 417.841
867 1 -48.9916 2.74758 415.46 -48.9916 2.74758 415.46
1159 1 -45.9864 4.20348 418.342 -45.9864 4.20348 418.342
1168 1 -40.3931 3.46435 418.404 -40.3931 3.46435 418.404
1170 1 -39.5301 1.25679 417.465 -39.5301 1.25679 417.465
594 1 -39.7217 3.53133 408.444 -39.7217 3.53133 408.444
37 1 -39.2745 2.1005 401.832 -39.2745 2.1005 401.832
851 1 -57.8102 0.529527 415.837 -57.8102 0.529527 415.837
857 1 -54.584 3.48531 415.398 -54.584 3.48531 415.398
592 1 -40.5845 1.31139 409.384 -40.5845 1.31139 409.384
849 1 -58.6721 2.73644 416.778 -58.6721 2.73644 416.778
877 1 -43.3976 2.0083 415.523 -43.3976 2.0083 415.523
1143 1 -56.308 3.47166 417.278 -56.308 3.47166 417.278
1140 1 -58.032 3.45804 419.159 -58.032 3.45804 419.159
845 1 -61.0363 2.0013 416.278 -61.0363 2.0013 416.278
875 1 -44.2606 4.21589 416.463 -44.2606 4.21589 416.463
886 1 -38.4432 0.547311 413.205 -38.4432 0.547311 413.205
891 1 -35.2152 3.5015 412.766 -35.2152 3.5015 412.766
39 1 -37.7773 0.60947 403.238 -37.7773 0.60947 403.238
1177 1 -35.663 0.505431 419.407 -35.663 0.505431 419.407
1167 1 -41.256 1.24444 419.344 -41.256 1.24444 419.344
8 1 -58.3924 3.56554 401.172 -58.3924 3.56554 401.172
869 1 -47.4889 1.26182 416.901 -47.4889 1.26182 416.901
1136 1 -60.3962 2.72289 418.659 -60.3962 2.72289 418.659
1162 1 -44.484 2.71771 419.783 -44.484 2.71771 419.783
15 1 -53.6813 0.617236 402.145 -53.6813 0.617236 402.145
280 1 -55.4102 0.603029 404.003 -55.4102 0.603029 404.003
277 1 -57.1466 0.601926 405.872 -57.1466 0.601926 405.872
273 1 -58.8714 0.588392 407.749 -58.8714 0.588392 407.749
560 1 -60.5931 0.572621 409.632 -60.5931 0.572621 409.632
557 1 -62.3164 0.558289 411.514 -62.3164 0.558289 411.514
26 1 -45.7272 0.620876 402.675 -45.7272 0.620876 402.675
294 1 -47.4569 0.610157 404.564 -47.4569 0.610157 404.564
291 1 -49.1831 0.593306 406.442 -49.1831 0.593306 406.442
576 1 -50.9093 0.579647 408.32 -50.9093 0.579647 408.32
573 1 -52.6367 0.568636 410.197 -52.6367 0.568636 410.197
570 1 -54.3624 0.556629 412.076 -54.3624 0.556629 412.076
854 1 -56.0864 0.543226 413.956 -56.0864 0.543226 413.956
305 1 -41.2237 0.589918 407.004 -41.2237 0.589918 407.004
589 1 -42.9499 0.577321 408.884 -42.9499 0.577321 408.884
586 1 -44.676 0.564691 410.763 -44.676 0.564691 410.763
872 1 -46.4023 0.552303 412.642 -46.4023 0.552303 412.642
599 1 -36.7173 0.559791 411.325 -36.7173 0.559791 411.325
1132 1 -62.7604 1.98786 418.159 -62.7604 1.98786 418.159
4 1 -60.1631 3.58703 402.973 -60.1631 3.58703 402.973
268 1 -61.8747 3.55841 404.86 -61.8747 3.55841 404.86
1152 1 -50.7167 2.7347 417.34 -50.7167 2.7347 417.34
19 1 -50.4676 3.56128 401.681 -50.4676 3.56128 401.681
286 1 -52.1842 3.55152 403.547 -52.1842 3.55152 403.547
282 1 -53.9094 3.54542 405.434 -53.9094 3.54542 405.434
279 1 -55.6417 3.53974 407.312 -55.6417 3.53974 407.312
565 1 -57.3678 3.52863 409.191 -57.3678 3.52863 409.191
563 1 -59.0908 3.51438 411.073 -59.0908 3.51438 411.073
846 1 -60.8144 3.50033 412.955 -60.8144 3.50033 412.955
32 1 -42.5009 3.57051 402.26 -42.5009 3.57051 402.26
300 1 -44.2293 3.56252 404.13 -44.2293 3.56252 404.13
297 1 -45.9559 3.54958 406.005 -45.9559 3.54958 406.005
293 1 -47.6811 3.53622 407.883 -47.6811 3.53622 407.883
578 1 -49.4072 3.52311 409.762 -49.4072 3.52311 409.762
575 1 -51.1341 3.51114 411.639 -51.1341 3.51114 411.639
860 1 -52.8597 3.49867 413.518 -52.8597 3.49867 413.518
591 1 -41.4476 3.51879 410.324 -41.4476 3.51879 410.324
588 1 -43.1737 3.50634 412.203 -43.1737 3.50634 412.203
874 1 -44.8999 3.49403 414.083 -44.8999 3.49403 414.083
10 1 -56.9073 2.07625 402.57 -56.9073 2.07625 402.57
274 1 -58.6546 2.09206 404.424 -58.6546 2.09206 404.424
271 1 -60.3742 2.07466 406.305 -60.3742 2.07466 406.305
558 1 -62.0948 2.05763 408.19 -62.0948 2.05763 408.19
24 1 -47.2493 2.10105 401.269 -47.2493 2.10105 401.269
21 1 -48.9662 2.09273 403.121 -48.9662 2.09273 403.121
288 1 -50.6839 2.07659 405.002 -50.6839 2.07659 405.002
285 1 -52.4102 2.06322 406.881 -52.4102 2.06322 406.881
571 1 -54.1393 2.05382 408.756 -54.1393 2.05382 408.756
568 1 -55.8651 2.04235 410.634 -55.8651 2.04235 410.634
852 1 -57.5887 2.02872 412.515 -57.5887 2.02872 412.515
848 1 -59.3123 2.0149 414.396 -59.3123 2.0149 414.396
306 1 -41.0029 2.08696 403.684 -41.0029 2.08696 403.684
302 1 -42.727 2.07507 405.561 -42.727 2.07507 405.561
299 1 -44.4524 2.06321 407.442 -44.4524 2.06321 407.442
583 1 -46.1783 2.05051 409.323 -46.1783 2.05051 409.323
581 1 -47.9048 2.03787 411.202 -47.9048 2.03787 411.202
866 1 -49.6314 2.02571 413.08 -49.6314 2.02571 413.08
880 1 -41.6714 2.02062 413.644 -41.6714 2.02062 413.644
312 1 -37.1335 1.33594 405.622 -37.1335 1.33594 405.622
2 1 -61.6788 0.652355 401.538 -61.6788 0.652355 401.538
13 1 -54.5385 2.82085 403.049 -54.5385 2.82085 403.049
278 1 -56.277 2.81603 404.932 -56.277 2.81603 404.932
275 1 -58.0095 2.80972 406.807 -58.0095 2.80972 406.807
562 1 -59.7317 2.79404 408.69 -59.7317 2.79404 408.69
559 1 -61.4545 2.77903 410.573 -61.4545 2.77903 410.573
1166 1 -42.1189 3.45196 420.284 -42.1189 3.45196 420.284
889 1 -36.0782 1.28156 413.706 -36.0782 1.28156 413.706
28 1 -44.8681 2.8404 401.774 -44.8681 2.8404 401.774
296 1 -46.5975 2.82823 403.625 -46.5975 2.82823 403.625
292 1 -48.3211 2.81545 405.502 -48.3211 2.81545 405.502
289 1 -50.0456 2.80023 407.382 -50.0456 2.80023 407.382
574 1 -51.773 2.78802 409.259 -51.773 2.78802 409.259
572 1 -53.4999 2.77667 411.136 -53.4999 2.77667 411.136
856 1 -55.2245 2.76378 413.016 -55.2245 2.76378 413.016
303 1 -42.0873 2.79703 407.943 -42.0873 2.79703 407.943
587 1 -43.813 2.78464 409.823 -43.813 2.78464 409.823
584 1 -45.5391 2.77217 411.703 -45.5391 2.77217 411.703
870 1 -47.2656 2.75992 413.582 -47.2656 2.75992 413.582
6 1 -59.2872 1.37191 402.047 -59.2872 1.37191 402.047
270 1 -61.0179 1.35779 403.913 -61.0179 1.35779 403.913
267 1 -62.7338 1.33595 405.805 -62.7338 1.33595 405.805
890 1 -35.4391 2.00342 416.086 -35.4391 2.00342 416.086
18 1 -51.317 1.34513 402.628 -51.317 1.34513 402.628
284 1 -53.0441 1.33752 404.503 -53.0441 1.33752 404.503
281 1 -54.7764 1.32948 406.377 -54.7764 1.32948 406.377
567 1 -56.5058 1.32149 408.252 -56.5058 1.32149 408.252
564 1 -58.2294 1.30788 410.132 -58.2294 1.30788 410.132
561 1 -59.9526 1.29357 412.014 -59.9526 1.29357 412.014
844 1 -61.6763 1.27976 413.896 -61.6763 1.27976 413.896
33 1 -41.6567 1.36113 401.322 -41.6567 1.36113 401.322
30 1 -43.371 1.3488 403.178 -43.371 1.3488 403.178
298 1 -45.0928 1.34197 405.061 -45.0928 1.34197 405.061
295 1 -46.8181 1.32942 406.943 -46.8181 1.32942 406.943
580 1 -48.544 1.31562 408.822 -48.544 1.31562 408.822
577 1 -50.2708 1.30324 410.7 -50.2708 1.30324 410.7
862 1 -51.9971 1.29127 412.578 -51.9971 1.29127 412.578
590 1 -42.3106 1.29888 411.264 -42.3106 1.29888 411.264
876 1 -44.0368 1.28645 413.143 -44.0368 1.28645 413.143
1163 1 -43.6212 0.510234 418.843 -43.6212 0.510234 418.843
1153 1 -50.0765 3.45615 419.721 -50.0765 3.45615 419.721
311 1 -37.9953 3.54432 406.565 -37.9953 3.54432 406.565
42 1 -36.0619 0.621344 401.383 -36.0619 0.621344 401.383
1135 1 -61.2582 0.502435 419.6 -61.2582 0.502435 419.6
1171 1 -38.8909 1.97869 419.845 -38.8909 1.97869 419.845
1139 1 -58.894 1.23753 420.1 -58.894 1.23753 420.1
601 1 -35.8544 2.77972 410.385 -35.8544 2.77972 410.385
313 1 -36.2673 3.55763 404.684 -36.2673 3.55763 404.684
858 1 -53.7219 1.27833 414.457 -53.7219 1.27833 414.457
868 1 -48.1287 0.540086 414.521 -48.1287 0.540086 414.521
1147 1 -53.9436 4.20683 417.779 -53.9436 4.20683 417.779
843 1 -62.5384 3.48672 414.837 -62.5384 3.48672 414.837
593 1 -39.9454 2.03304 411.764 -39.9454 2.03304 411.764
308 1 -39.4984 0.602228 405.121 -39.4984 0.602228 405.121
861 1 -52.2193 4.22031 415.899 -52.2193 4.22031 415.899
1158 1 -46.8491 1.98343 419.282 -46.8491 1.98343 419.282
884 1 -39.3062 2.75483 414.145 -39.3062 2.75483 414.145
881 1 -41.0323 2.74247 416.024 -41.0323 2.74247 416.024
885 1 -38.6671 3.47669 416.525 -38.6671 3.47669 416.525
859 1 -53.0815 1.99987 416.839 -53.0815 1.99987 416.839
596 1 -38.2195 2.04548 409.884 -38.2195 2.04548 409.884
879 1 -41.8953 0.522585 416.964 -41.8953 0.522585 416.964
1172 1 -38.028 4.1986 418.906 -38.028 4.1986 418.906
1154 1 -49.2141 1.249 418.781 -49.2141 1.249 418.781
887 1 -37.8041 1.26915 415.585 -37.8041 1.26915 415.585
597 1 -37.5803 2.76725 412.265 -37.5803 2.76725 412.265
1161 1 -45.1236 1.99599 417.402 -45.1236 1.99599 417.402
1138 1 -59.5341 0.515924 417.718 -59.5341 0.515924 417.718
1149 1 -52.4412 2.72134 419.22 -52.4412 2.72134 419.22
41 1 -36.9069 2.8308 402.321 -36.9069 2.8308 402.321
888 1 -36.9412 3.48907 414.645 -36.9412 3.48907 414.645
1165 1 -42.7583 2.73015 417.903 -42.7583 2.73015 417.903
1141 1 -57.1699 1.25111 418.219 -57.1699 1.25111 418.219
1145 1 -54.8057 1.9863 418.72 -54.8057 1.9863 418.72
600 1 -36.4939 2.05791 408.004 -36.4939 2.05791 408.004
1148 1 -53.3033 0.50086 420.161 -53.3033 0.50086 420.161
882 1 -40.8084 4.24053 412.704 -40.8084 4.24053 412.704
1157 1 -47.7116 4.19072 420.222 -47.7116 4.19072 420.222
1144 1 -55.6677 4.19322 419.66 -55.6677 4.19322 419.66
602 1 -34.9913 0.572325 409.445 -34.9913 0.572325 409.445
1131 1 -62.9823 0.489026 421.481 -62.9823 0.489026 421.481
1755 1 -35.4711 2.6588 428.429 -35.4711 2.6588 428.429
1460 1 -39.9772 2.68808 424.106 -39.9772 2.68808 424.106
2308 1 -49.6836 3.33104 437.77 -49.6836 3.33104 437.77
2316 1 -44.7338 1.87219 435.449 -44.7338 1.87219 435.449
2312 1 -47.3196 4.06597 438.27 -47.3196 4.06597 438.27
1464 1 -37.6124 3.42247 424.607 -37.6124 3.42247 424.607
1461 1 -39.1145 0.480625 423.166 -39.1145 0.480625 423.166
2039 1 -38.2813 3.35494 434.57 -38.2813 3.35494 434.57
2613 1 -40.2276 1.84317 439.772 -40.2276 1.84317 439.772
1467 1 -35.2477 4.15687 425.108 -35.2477 4.15687 425.108
2603 1 -45.8174 2.58049 439.711 -45.8174 2.58049 439.711
1443 1 -49.4363 4.17759 422.102 -49.4363 4.17759 422.102
1748 1 -39.3377 3.40986 426.486 -39.3377 3.40986 426.486
2023 1 -47.0979 1.13733 434.949 -47.0979 1.13733 434.949
2310 1 -48.1815 1.84558 439.211 -48.1815 1.84558 439.211
1151 1 -50.9387 1.23577 420.661 -50.9387 1.23577 420.661
2303 1 -52.9096 0.375643 438.21 -52.9096 0.375643 438.21
2299 1 -55.2737 4.06806 437.71 -55.2737 4.06806 437.71
2033 1 -41.5076 0.399892 435.009 -41.5076 0.399892 435.009
1433 1 -55.0274 0.4873 422.041 -55.0274 0.4873 422.041
1430 1 -56.7515 0.473746 423.922 -56.7515 0.473746 423.922
1426 1 -58.4756 0.460217 425.803 -58.4756 0.460217 425.803
1713 1 -60.1996 0.446715 427.684 -60.1996 0.446715 427.684
1710 1 -61.9235 0.433238 429.566 -61.9235 0.433238 429.566
2330 1 -36.1397 2.5912 438.392 -36.1397 2.5912 438.392
1160 1 -45.3466 0.497661 420.723 -45.3466 0.497661 420.723
1447 1 -47.0716 0.484765 422.603 -47.0716 0.484765 422.603
1444 1 -48.7962 0.471597 424.483 -48.7962 0.471597 424.483
1730 1 -50.5205 0.458262 426.364 -50.5205 0.458262 426.364
1727 1 -52.2447 0.444841 428.245 -52.2447 0.444841 428.245
1724 1 -53.9687 0.431377 430.126 -53.9687 0.431377 430.126
2008 1 -55.6927 0.417896 432.007 -55.6927 0.417896 432.007
2006 1 -57.4165 0.404411 433.888 -57.4165 0.404411 433.888
1458 1 -40.8398 0.468026 425.046 -40.8398 0.468026 425.046
1743 1 -42.5648 0.455218 426.926 -42.5648 0.455218 426.926
1740 1 -44.2895 0.442208 428.806 -44.2895 0.442208 428.806
2026 1 -46.0139 0.429041 430.686 -46.0139 0.429041 430.686
2022 1 -47.738 0.415766 432.567 -47.738 0.415766 432.567
2019 1 -49.462 0.402423 434.448 -49.462 0.402423 434.448
2309 1 -48.8218 1.12399 436.829 -48.8218 1.12399 436.829
1137 1 -59.756 3.4445 421.041 -59.756 3.4445 421.041
1421 1 -61.4801 3.43103 422.922 -61.4801 3.43103 422.922
1439 1 -51.8009 3.44279 421.602 -51.8009 3.44279 421.602
1435 1 -53.5251 3.4293 423.482 -53.5251 3.4293 423.482
1432 1 -55.2493 3.41578 425.363 -55.2493 3.41578 425.363
1719 1 -56.9733 3.40226 427.244 -56.9733 3.40226 427.244
1716 1 -58.6973 3.38874 429.125 -58.6973 3.38874 429.125
2001 1 -60.4212 3.37525 431.006 -60.4212 3.37525 431.006
1998 1 -62.1451 3.36178 432.887 -62.1451 3.36178 432.887
2323 1 -40.0056 3.34184 436.45 -40.0056 3.34184 436.45
1453 1 -43.8443 3.43938 422.164 -43.8443 3.43938 422.164
1450 1 -45.5693 3.42653 424.044 -45.5693 3.42653 424.044
1446 1 -47.2939 3.41343 425.924 -47.2939 3.41343 425.924
1732 1 -49.0183 3.40016 427.805 -49.0183 3.40016 427.805
1729 1 -50.7424 3.38679 429.686 -50.7424 3.38679 429.686
2014 1 -52.4665 3.37337 431.566 -52.4665 3.37337 431.566
2011 1 -54.1904 3.35992 433.447 -54.1904 3.35992 433.447
1745 1 -41.0627 3.39706 428.367 -41.0627 3.39706 428.367
1742 1 -42.7873 3.38408 430.247 -42.7873 3.38408 430.247
2028 1 -44.5117 3.37095 432.127 -44.5117 3.37095 432.127
2025 1 -46.2359 3.3577 434.008 -46.2359 3.3577 434.008
1427 1 -58.2538 1.95913 422.481 -58.2538 1.95913 422.481
1424 1 -59.9779 1.94562 424.363 -59.9779 1.94562 424.363
1711 1 -61.7019 1.93215 426.244 -61.7019 1.93215 426.244
2322 1 -40.8676 1.12153 437.391 -40.8676 1.12153 437.391
1750 1 -37.8357 1.92428 427.927 -37.8357 1.92428 427.927
1155 1 -48.574 1.97047 421.162 -48.574 1.97047 421.162
1441 1 -50.2985 1.95721 423.042 -50.2985 1.95721 423.042
1438 1 -52.0228 1.9438 424.923 -52.0228 1.9438 424.923
1725 1 -53.747 1.93032 426.804 -53.747 1.93032 426.804
1722 1 -55.471 1.91682 428.685 -55.471 1.91682 428.685
1718 1 -57.195 1.90332 430.566 -57.195 1.90332 430.566
2003 1 -58.9188 1.88982 432.447 -58.9188 1.88982 432.447
2000 1 -60.6426 1.87634 434.328 -60.6426 1.87634 434.328
1459 1 -40.6166 1.96627 421.725 -40.6166 1.96627 421.725
1455 1 -42.342 1.95368 423.605 -42.342 1.95368 423.605
1452 1 -44.067 1.94086 425.485 -44.067 1.94086 425.485
1737 1 -45.7917 1.92781 427.365 -45.7917 1.92781 427.365
1735 1 -47.516 1.9146 429.246 -47.516 1.9146 429.246
2020 1 -49.2402 1.90128 431.126 -49.2402 1.90128 431.126
2017 1 -50.9642 1.8879 433.007 -50.9642 1.8879 433.007
2034 1 -41.2853 1.89852 431.688 -41.2853 1.89852 431.688
2031 1 -43.0096 1.88541 433.568 -43.0096 1.88541 433.568
2029 1 -43.8717 4.09254 434.509 -43.8717 4.09254 434.509
1146 1 -54.1654 2.70781 421.101 -54.1654 2.70781 421.101
1431 1 -55.8895 2.69425 422.982 -55.8895 2.69425 422.982
1428 1 -57.6136 2.6807 424.863 -57.6136 2.6807 424.863
1715 1 -59.3376 2.66719 426.744 -59.3376 2.66719 426.744
1712 1 -61.0616 2.6537 428.625 -61.0616 2.6537 428.625
1708 1 -62.7855 2.64024 430.506 -62.7855 2.64024 430.506
1747 1 -39.5606 1.91149 429.807 -39.5606 1.91149 429.807
1449 1 -46.2092 2.70498 421.663 -46.2092 2.70498 421.663
1445 1 -47.9339 2.69193 423.543 -47.9339 2.69193 423.543
1442 1 -49.6584 2.67867 425.424 -49.6584 2.67867 425.424
1728 1 -51.3826 2.66529 427.304 -51.3826 2.66529 427.304
1726 1 -53.1067 2.65184 429.185 -53.1067 2.65184 429.185
2010 1 -54.8307 2.63836 431.066 -54.8307 2.63836 431.066
2007 1 -56.5546 2.62488 432.947 -56.5546 2.62488 432.947
1456 1 -41.7024 2.67538 425.986 -41.7024 2.67538 425.986
1741 1 -43.4272 2.66246 427.866 -43.4272 2.66246 427.866
1738 1 -45.1517 2.64937 429.746 -45.1517 2.64937 429.746
2024 1 -46.876 2.63614 431.627 -46.876 2.63614 431.627
2021 1 -48.6 2.62283 433.508 -48.6 2.62283 433.508
2035 1 -40.6454 2.62018 434.069 -40.6454 2.62018 434.069
1754 1 -36.1104 1.9369 426.048 -36.1104 1.9369 426.048
1423 1 -60.6181 1.22404 421.981 -60.6181 1.22404 421.981
1420 1 -62.3421 1.21059 423.862 -62.3421 1.21059 423.862
2044 1 -35.0548 1.88243 434.131 -35.0548 1.88243 434.131
1437 1 -52.663 1.22233 422.542 -52.663 1.22233 422.542
1434 1 -54.3872 1.20882 424.423 -54.3872 1.20882 424.423
1721 1 -56.1113 1.19529 426.304 -56.1113 1.19529 426.304
1717 1 -57.8353 1.18177 428.185 -57.8353 1.18177 428.185
1714 1 -59.5592 1.16827 430.066 -59.5592 1.16827 430.066
1999 1 -61.2831 1.15478 431.947 -61.2831 1.15478 431.947
1997 1 -63.007 1.14132 433.828 -63.007 1.14132 433.828
1164 1 -42.9816 1.23198 421.224 -42.9816 1.23198 421.224
1451 1 -44.7068 1.21926 423.104 -44.7068 1.21926 423.104
1448 1 -46.4316 1.20628 424.984 -46.4316 1.20628 424.984
1734 1 -48.1561 1.19308 426.864 -48.1561 1.19308 426.864
1731 1 -49.8804 1.17976 428.745 -49.8804 1.17976 428.745
2016 1 -51.6045 1.16636 430.626 -51.6045 1.16636 430.626
2012 1 -53.3284 1.15292 432.507 -53.3284 1.15292 432.507
2009 1 -55.0523 1.13946 434.388 -55.0523 1.13946 434.388
1746 1 -40.2002 1.18976 427.426 -40.2002 1.18976 427.426
1744 1 -41.925 1.17687 429.307 -41.925 1.17687 429.307
2030 1 -43.6496 1.1638 431.187 -43.6496 1.1638 431.187
2027 1 -45.3738 1.15061 433.068 -45.3738 1.15061 433.068
2325 1 -39.1435 1.13468 435.51 -39.1435 1.13468 435.51
1749 1 -38.6982 4.13163 428.867 -38.6982 4.13163 428.867
1425 1 -59.1158 4.1661 423.422 -59.1158 4.1661 423.422
1736 1 -46.6539 4.13495 428.305 -46.6539 4.13495 428.305
1142 1 -56.5297 1.97269 420.6 -56.5297 1.97269 420.6
1720 1 -56.333 4.1238 429.625 -56.333 4.1238 429.625
2005 1 -58.0569 4.1103 431.506 -58.0569 4.1103 431.506
2002 1 -59.7808 4.09681 433.388 -59.7808 4.09681 433.388
1169 1 -39.7538 4.18622 420.785 -39.7538 4.18622 420.785
1723 1 -54.609 4.1373 427.744 -54.609 4.1373 427.744
1440 1 -51.1607 4.16424 423.983 -51.1607 4.16424 423.983
1733 1 -48.3782 4.12168 430.186 -48.3782 4.12168 430.186
2018 1 -50.1022 4.10832 432.067 -50.1022 4.10832 432.067
2015 1 -51.8262 4.09492 433.948 -51.8262 4.09492 433.948
2036 1 -40.423 4.11875 430.748 -40.423 4.11875 430.748
2032 1 -42.1475 4.10571 432.628 -42.1475 4.10571 432.628
2326 1 -38.5036 1.85636 437.891 -38.5036 1.85636 437.891
1752 1 -36.9731 4.14434 426.988 -36.9731 4.14434 426.988
1457 1 -41.4794 4.17373 422.665 -41.4794 4.17373 422.665
2043 1 -35.6943 1.16059 431.749 -35.6943 1.16059 431.749
2286 1 -62.3664 1.86288 436.209 -62.3664 1.86288 436.209
2319 1 -42.5916 1.1083 439.271 -42.5916 1.1083 439.271
1436 1 -52.8849 4.15079 425.863 -52.8849 4.15079 425.863
1422 1 -60.8399 4.15261 425.303 -60.8399 4.15261 425.303
1173 1 -37.3889 0.493065 421.286 -37.3889 0.493065 421.286
2293 1 -58.4997 1.11255 438.15 -58.4997 1.11255 438.15
2289 1 -60.8639 0.377474 437.65 -60.8639 0.377474 437.65
2295 1 -56.9973 4.05464 439.591 -56.9973 4.05464 439.591
1465 1 -36.7497 1.21498 423.667 -36.7497 1.21498 423.667
2315 1 -44.9556 0.373418 438.771 -44.9556 0.373418 438.771
2331 1 -35.9171 4.08969 435.071 -35.9171 4.08969 435.071
2297 1 -56.1355 1.84762 438.65 -56.1355 1.84762 438.65
2324 1 -39.3657 4.0635 438.832 -39.3657 4.0635 438.832
2306 1 -50.5455 1.11063 438.71 -50.5455 1.11063 438.71
2285 1 -62.5876 0.364038 439.531 -62.5876 0.364038 439.531
1462 1 -38.4751 1.20246 425.547 -38.4751 1.20246 425.547
1751 1 -37.1962 2.64609 430.308 -37.1962 2.64609 430.308
2329 1 -36.7794 1.86946 436.011 -36.7794 1.86946 436.011
2042 1 -36.5567 3.3679 432.69 -36.5567 3.3679 432.69
2041 1 -37.419 1.14771 433.63 -37.419 1.14771 433.63
2593 1 -51.4073 3.31768 439.651 -51.4073 3.31768 439.651
2328 1 -37.0017 0.370905 439.332 -37.0017 0.370905 439.332
2301 1 -53.7714 2.58267 439.151 -53.7714 2.58267 439.151
1466 1 -35.8868 3.43492 422.727 -35.8868 3.43492 422.727
2298 1 -55.9142 3.34646 435.328 -55.9142 3.34646 435.328
2321 1 -41.7296 3.32865 438.331 -41.7296 3.32865 438.331
2313 1 -46.4577 1.85891 437.33 -46.4577 1.85891 437.33
2294 1 -57.6379 3.333 437.21 -57.6379 3.333 437.21
2304 1 -52.0477 2.59607 437.27 -52.0477 2.59607 437.27
2300 1 -54.4119 1.86105 436.769 -54.4119 1.86105 436.769
2290 1 -60.0021 2.59793 436.709 -60.0021 2.59793 436.709
2318 1 -43.2317 0.38669 436.89 -43.2317 0.38669 436.89
2327 1 -37.6415 4.07665 436.951 -37.6415 4.07665 436.951
2004 1 -58.2784 2.6114 434.828 -58.2784 2.6114 434.828
2013 1 -52.6881 1.87448 434.888 -52.6881 1.87448 434.888
2288 1 -61.5045 4.08334 435.269 -61.5045 4.08334 435.269
2037 1 -39.7832 0.412989 433.129 -39.7832 0.412989 433.129
1739 1 -44.9294 4.14808 426.425 -44.9294 4.14808 426.425
1753 1 -36.3337 0.438741 429.368 -36.3337 0.438741 429.368
2307 1 -50.324 2.60946 435.389 -50.324 2.60946 435.389
2314 1 -45.5957 4.07928 436.389 -45.5957 4.07928 436.389
2040 1 -38.0586 0.425948 431.248 -38.0586 0.425948 431.248
2320 1 -42.3697 2.60703 435.95 -42.3697 2.60703 435.95
2292 1 -59.1403 0.390934 435.769 -59.1403 0.390934 435.769
2311 1 -47.9598 3.34439 435.889 -47.9598 3.34439 435.889
2302 1 -53.55 4.08149 435.829 -53.55 4.08149 435.829
2296 1 -56.776 1.126 436.269 -56.776 1.126 436.269
1463 1 -38.2517 2.70059 422.226 -38.2517 2.70059 422.226
2287 1 -61.7258 2.58448 438.59 -61.7258 2.58448 438.59
2291 1 -59.3615 3.31955 439.091 -59.3615 3.31955 439.091
2317 1 -44.0936 2.59379 437.83 -44.0936 2.59379 437.83
2038 1 -38.921 2.63321 432.189 -38.921 2.63321 432.189
2305 1 -51.1859 0.389041 436.329 -51.1859 0.389041 436.329
2332 1 -35.2775 0.384015 437.452 -35.2775 0.384015 437.452
1709 1 -62.5639 4.13915 427.184 -62.5639 4.13915 427.184
1468 1 -35.024 1.22739 421.787 -35.024 1.22739 421.787
1454 1 -43.2046 4.16103 424.545 -43.2046 4.16103 424.545
1429 1 -57.3918 4.17963 421.541 -57.3918 4.17963 421.541
1133 1 -62.1203 2.70945 420.54 -62.1203 2.70945 420.54
1175 1 -36.526 2.71298 420.346 -36.526 2.71298 420.346
2616 1 -38.0856 1.07933 443.594 -38.0856 1.07933 443.594
2901 1 -39.8091 1.06603 445.475 -39.8091 1.06603 445.475
2907 1 -36.5837 4.02134 445.036 -36.5837 4.02134 445.036
3194 1 -37.6667 0.302159 449.298 -37.6667 0.302159 449.298
2587 1 -54.6332 0.362248 440.091 -54.6332 0.362248 440.091
2597 1 -49.0433 4.05264 440.151 -49.0433 4.05264 440.151
2584 1 -56.3567 0.34887 441.972 -56.3567 0.34887 441.972
2581 1 -58.0801 0.335518 443.853 -58.0801 0.335518 443.853
2868 1 -59.8034 0.322195 445.734 -59.8034 0.322195 445.734
2865 1 -61.5267 0.308898 447.615 -61.5267 0.308898 447.615
2601 1 -46.6793 0.360106 440.652 -46.6793 0.360106 440.652
2598 1 -48.4028 0.346783 442.533 -48.4028 0.346783 442.533
2885 1 -50.1263 0.333476 444.414 -50.1263 0.333476 444.414
2882 1 -51.8496 0.320212 446.295 -51.8496 0.320212 446.295
2879 1 -53.5728 0.307014 448.176 -53.5728 0.307014 448.176
2612 1 -40.4494 0.344427 443.094 -40.4494 0.344427 443.094
2898 1 -42.1729 0.331124 444.975 -42.1729 0.331124 444.975
2895 1 -43.8962 0.317816 446.856 -43.8962 0.317816 446.856
3180 1 -45.6194 0.304532 448.737 -45.6194 0.304532 448.737
2576 1 -61.085 3.30613 440.972 -61.085 3.30613 440.972
2574 1 -62.8085 3.29273 442.853 -62.8085 3.29273 442.853
2589 1 -53.1309 3.30432 441.532 -53.1309 3.30432 441.532
2586 1 -54.8543 3.29098 443.413 -54.8543 3.29098 443.413
2874 1 -56.5776 3.27769 445.294 -56.5776 3.27769 445.294
2871 1 -58.3009 3.26443 447.175 -58.3009 3.26443 447.175
3155 1 -60.0241 3.25122 449.056 -60.0241 3.25122 449.056
2607 1 -43.4535 3.31538 440.212 -43.4535 3.31538 440.212
2604 1 -45.1771 3.30208 442.093 -45.1771 3.30208 442.093
2600 1 -46.9006 3.28877 443.974 -46.9006 3.28877 443.974
2887 1 -48.624 3.27547 445.855 -48.624 3.27547 445.855
2884 1 -50.3472 3.26222 447.736 -50.3472 3.26222 447.736
3168 1 -52.0704 3.24904 449.617 -52.0704 3.24904 449.617
2900 1 -40.6708 3.2731 446.416 -40.6708 3.2731 446.416
2897 1 -42.394 3.2598 448.297 -42.394 3.2598 448.297
2582 1 -57.8591 1.8342 440.531 -57.8591 1.8342 440.531
2579 1 -59.5825 1.82081 442.413 -59.5825 1.82081 442.413
2866 1 -61.306 1.80744 444.294 -61.306 1.80744 444.294
2578 1 -60.2233 1.09911 440.031 -60.2233 1.09911 440.031
2595 1 -49.9051 1.83224 441.092 -49.9051 1.83224 441.092
2592 1 -51.6286 1.81891 442.973 -51.6286 1.81891 442.973
2880 1 -53.3519 1.80562 444.854 -53.3519 1.80562 444.854
2877 1 -55.0752 1.79238 446.735 -55.0752 1.79238 446.735
2873 1 -56.7985 1.7792 448.616 -56.7985 1.7792 448.616
2609 1 -41.9514 1.8299 441.653 -41.9514 1.8299 441.653
2606 1 -43.675 1.8166 443.534 -43.675 1.8166 443.534
2892 1 -45.3984 1.80329 445.415 -45.3984 1.80329 445.415
2890 1 -47.1217 1.79 447.296 -47.1217 1.79 447.296
3174 1 -48.8448 1.77675 449.177 -48.8448 1.77675 449.177
2618 1 -37.2238 3.2997 442.654 -37.2238 3.2997 442.654
2585 1 -55.4949 2.56928 441.032 -55.4949 2.56928 441.032
2583 1 -57.2184 2.55592 442.913 -57.2184 2.55592 442.913
2870 1 -58.9418 2.54258 444.794 -58.9418 2.54258 444.794
2867 1 -60.6651 2.52927 446.675 -60.6651 2.52927 446.675
2863 1 -62.3883 2.51598 448.556 -62.3883 2.51598 448.556
2599 1 -47.5411 2.56717 441.592 -47.5411 2.56717 441.592
2596 1 -49.2646 2.55385 443.473 -49.2646 2.55385 443.473
2883 1 -50.9879 2.54056 445.355 -50.9879 2.54056 445.355
2881 1 -52.7112 2.52733 447.236 -52.7112 2.52733 447.236
3164 1 -54.4344 2.51417 449.117 -54.4344 2.51417 449.117
2610 1 -41.3112 2.5515 444.034 -41.3112 2.5515 444.034
2896 1 -43.0346 2.5382 445.915 -43.0346 2.5382 445.915
2893 1 -44.7578 2.5249 447.796 -44.7578 2.5249 447.796
3178 1 -46.4809 2.51164 449.677 -46.4809 2.51164 449.677
2575 1 -61.9468 1.0857 441.912 -61.9468 1.0857 441.912
2591 1 -52.2691 1.09727 440.592 -52.2691 1.09727 440.592
2588 1 -53.9926 1.08392 442.473 -53.9926 1.08392 442.473
2876 1 -55.716 1.0706 444.354 -55.716 1.0706 444.354
2872 1 -57.4393 1.05733 446.235 -57.4393 1.05733 446.235
2869 1 -59.1625 1.0441 448.116 -59.1625 1.0441 448.116
2605 1 -44.3153 1.09501 441.152 -44.3153 1.09501 441.152
2602 1 -46.0389 1.0817 443.033 -46.0389 1.0817 443.033
2889 1 -47.7623 1.06839 444.914 -47.7623 1.06839 444.914
2886 1 -49.4856 1.05511 446.795 -49.4856 1.05511 446.795
3170 1 -51.2088 1.04189 448.677 -51.2088 1.04189 448.677
2899 1 -41.5324 1.05272 447.356 -41.5324 1.05272 447.356
3184 1 -43.2556 1.03943 449.237 -43.2556 1.03943 449.237
2580 1 -58.7208 4.04123 441.472 -58.7208 4.04123 441.472
2577 1 -60.4443 4.02785 443.353 -60.4443 4.02785 443.353
2864 1 -62.1676 4.01449 445.234 -62.1676 4.01449 445.234
2862 1 -63.0293 1.79409 446.175 -63.0293 1.79409 446.175
2594 1 -50.7668 4.0393 442.032 -50.7668 4.0393 442.032
2590 1 -52.4903 4.02599 443.914 -52.4903 4.02599 443.914
2878 1 -54.2136 4.01272 445.795 -54.2136 4.01272 445.795
2875 1 -55.9369 3.99951 447.676 -55.9369 3.99951 447.676
3159 1 -57.66 3.98637 449.557 -57.66 3.98637 449.557
2611 1 -41.0895 4.05027 440.712 -41.0895 4.05027 440.712
2608 1 -42.8132 4.03698 442.593 -42.8132 4.03698 442.593
2894 1 -44.5367 4.02367 444.474 -44.5367 4.02367 444.474
2891 1 -46.26 4.01037 446.355 -46.26 4.01037 446.355
2888 1 -47.9832 3.99709 448.236 -47.9832 3.99709 448.236
2904 1 -38.3071 4.00802 446.916 -38.3071 4.00802 446.916
2621 1 -35.4999 3.31292 440.774 -35.4999 3.31292 440.774
2617 1 -37.8637 2.57804 440.273 -37.8637 2.57804 440.273
2614 1 -39.5876 2.56479 442.153 -39.5876 2.56479 442.153
2908 1 -35.9435 0.315503 447.417 -35.9435 0.315503 447.417
2619 1 -36.3618 1.09259 441.714 -36.3618 1.09259 441.714
2906 1 -36.8052 2.52256 448.358 -36.8052 2.52256 448.358
2905 1 -37.4454 1.80095 445.976 -37.4454 1.80095 445.976
2620 1 -35.7219 1.81426 444.095 -35.7219 1.81426 444.095
3190 1 -40.0303 3.9947 448.797 -40.0303 3.9947 448.797
2902 1 -39.1688 1.78763 447.857 -39.1688 1.78763 447.857
2903 1 -38.9474 3.28641 444.535 -38.9474 3.28641 444.535
2615 1 -38.7257 0.357697 441.213 -38.7257 0.357697 441.213
2909 1 -35.0818 2.5359 446.477 -35.0818 2.5359 446.477
14 1 -54.3428 4.35222 399.859 -54.3428 4.35222 399.859
7 1 -58.9953 2.85423 398.952 -58.9953 2.85423 398.952
25 1 -46.3746 4.34506 400.333 -46.3746 4.34506 400.333
38 1 -38.4027 4.2988 400.847 -38.4027 4.2988 400.847
23 1 -48.1006 4.31532 402.206 -48.1006 4.31532 402.206
287 1 -51.5472 4.28151 405.938 -51.5472 4.28151 405.938
878 1 -42.5345 4.22817 414.583 -42.5345 4.22817 414.583
579 1 -48.7681 4.24554 412.141 -48.7681 4.24554 412.141
585 1 -45.3153 4.27069 408.383 -45.3153 4.27069 408.383
290 1 -49.8256 4.29559 404.06 -49.8256 4.29559 404.06
11 1 -56.0494 4.29889 401.649 -56.0494 4.29889 401.649
595 1 -39.0824 4.253 410.824 -39.0824 4.253 410.824
1134 1 -61.8983 4.20829 417.218 -61.8983 4.20829 417.218
283 1 -53.2749 4.2718 407.816 -53.2749 4.2718 407.816
582 1 -47.0415 4.25787 410.262 -47.0415 4.25787 410.262
276 1 -57.7867 4.30538 403.506 -57.7867 4.30538 403.506
569 1 -55.0026 4.26212 409.693 -55.0026 4.26212 409.693
847 1 -60.1742 4.2218 415.337 -60.1742 4.2218 415.337
556 1 -62.9565 4.26417 409.132 -62.9565 4.26417 409.132
272 1 -59.517 4.29835 405.365 -59.517 4.29835 405.365
3 1 -60.8172 2.86448 400.638 -60.8172 2.86448 400.638
35 1 -40.1327 4.30874 402.733 -40.1327 4.30874 402.733
598 1 -37.3565 4.26559 408.945 -37.3565 4.26559 408.945
850 1 -58.4504 4.2355 413.455 -58.4504 4.2355 413.455
304 1 -41.8607 4.29685 404.623 -41.8607 4.29685 404.623