ITEM: TIMESTEP
0
ITEM: NUMBER OF ATOMS
4630
ITEM: BOX BOUNDS xy xz yz pp pp pp
-6.4098581669103396e+01 1.0711761351730340e+02 0.0000000000000000e+00
0.0000000000000000e+00 4.4274527100805940e+00 0.0000000000000000e+00
3.8000000000000000e+02 5.0000000000000000e+02 0.0000000000000000e+00
ITEM: ATOMS id type x y z xu yu zu
7 1 -59.7957 2.66566 399.195 -59.7957 2.66566 399.195
27 1 -46.1791 1.9643 399.748 -46.1791 1.9643 399.748
36 1 -40.5284 1.22379 399.807 -40.5284 1.22379 399.807
45 1 -34.8802 0.48522 399.869 -34.8802 0.48522 399.869
85 1 -9.03214 0.491697 399.694 -9.03214 0.491697 399.694
94 1 -3.38093 4.17896 399.753 -3.38093 4.17896 399.753
103 1 2.26713 3.44046 399.814 2.26713 3.44046 399.814
112 1 7.91489 2.7022 399.877 7.91489 2.7022 399.877
152 1 33.7627 2.70298 399.695 33.7627 2.70298 399.695
161 1 39.4151 1.96088 399.751 39.4151 1.96088 399.751
170 1 45.0647 1.22063 399.81 45.0647 1.22063 399.81
227 1 82.2181 4.17202 399.746 82.2181 4.17202 399.746
236 1 87.87 3.43112 399.803 87.87 3.43112 399.803
245 1 93.5181 2.69164 399.864 93.5181 2.69164 399.864
5 1 -60.6945 0.452643 399.993 -60.6945 0.452643 399.993
2 1 -62.5066 0.470464 401.758 -62.5066 0.470464 401.758
3 1 -61.6196 2.68082 400.874 -61.6196 2.68082 400.874
1 1 -63.3666 2.66083 402.692 107.85 2.66083 402.692
4 1 -60.977 3.41971 403.192 -60.977 3.41971 403.192
9 1 -58.3021 1.13717 400.456 -58.3021 1.13717 400.456
8 1 -59.1803 3.39104 401.408 -59.1803 3.39104 401.408
10 1 -57.6837 1.90624 402.797 -57.6837 1.90624 402.797
6 1 -60.0877 1.19925 402.277 -60.0877 1.19925 402.277
11 1 -56.8169 4.12374 401.875 -56.8169 4.12374 401.875
12 1 -55.9463 1.9424 400.934 -55.9463 1.9424 400.934
16 1 -53.5508 2.64179 401.398 -53.5508 2.64179 401.398
15 1 -54.4261 0.447742 402.38 -54.4261 0.447742 402.38
14 1 -55.0785 4.17253 400.106 -55.0785 4.17253 400.106
17 1 -52.682 0.443427 400.548 -52.682 0.443427 400.548
13 1 -55.2939 2.65554 403.274 -55.2939 2.65554 403.274
22 1 -49.4042 3.41561 400.151 -49.4042 3.41561 400.151
20 1 -50.2972 1.1928 400.991 -50.2972 1.1928 400.991
19 1 -51.1802 3.3862 401.911 -51.1802 3.3862 401.911
18 1 -52.0378 1.17617 402.859 -52.0378 1.17617 402.859
21 1 -49.6649 1.92562 403.346 -49.6649 1.92562 403.346
23 1 -48.7885 4.14325 402.442 -48.7885 4.14325 402.442
26 1 -46.3938 0.45289 402.909 -46.3938 0.45289 402.909
24 1 -47.9283 1.92127 401.504 -47.9283 1.92127 401.504
28 1 -45.5248 2.66816 402.017 -45.5248 2.66816 402.017
25 1 -47.0418 4.16235 400.58 -47.0418 4.16235 400.58
29 1 -44.6474 0.434068 401.036 -44.6474 0.434068 401.036
31 1 -43.779 2.66267 400.186 -43.779 2.66267 400.186
34 1 -41.3981 3.42201 400.635 -41.3981 3.42201 400.635
32 1 -43.1347 3.39895 402.499 -43.1347 3.39895 402.499
33 1 -42.2831 1.18361 401.559 -42.2831 1.18361 401.559
30 1 -44.0142 1.18184 403.407 -44.0142 1.18184 403.407
35 1 -40.7461 4.1421 402.967 -40.7461 4.1421 402.967
40 1 -38.13 1.92327 400.247 -38.13 1.92327 400.247
37 1 -39.8784 1.92997 402.077 -39.8784 1.92997 402.077
41 1 -37.4874 2.66059 402.56 -37.4874 2.66059 402.56
38 1 -39.0003 4.12183 401.096 -39.0003 4.12183 401.096
39 1 -38.3671 0.443894 403.468 -38.3671 0.443894 403.468
43 1 -35.7498 2.6834 400.697 -35.7498 2.6834 400.697
42 1 -36.6353 0.444835 401.621 -36.6353 0.444835 401.621
44 1 -35.0983 3.40391 403.029 -35.0983 3.40391 403.029
46 1 -34.2305 1.19166 402.139 -34.2305 1.19166 402.139
47 1 -33.3521 3.38356 401.158 -33.3521 3.38356 401.158
49 1 -32.4819 1.18501 400.31 -32.4819 1.18501 400.31
52 1 -30.1017 1.94531 400.76 -30.1017 1.94531 400.76
50 1 -31.8393 1.92248 402.622 -31.8393 1.92248 402.622
51 1 -30.9872 4.13419 401.683 -30.9872 4.13419 401.683
53 1 -29.4502 2.66588 403.092 -29.4502 2.66588 403.092
54 1 -29.232 4.17459 399.931 -29.232 4.17459 399.931
48 1 -32.7191 4.13329 403.53 -32.7191 4.13329 403.53
58 1 -26.8338 0.446951 400.372 -26.8338 0.446951 400.372
59 1 -26.1912 1.18446 402.685 -26.1912 1.18446 402.685
56 1 -27.704 2.64551 401.221 -27.704 2.64551 401.221
55 1 -28.5823 0.453626 402.201 -28.5823 0.453626 402.201
60 1 -25.3391 3.39616 401.746 -25.3391 3.39616 401.746
57 1 -27.0709 3.3953 403.593 -27.0709 3.3953 403.593
61 1 -24.4536 1.20726 400.822 -24.4536 1.20726 400.822
63 1 -23.584 3.43654 399.994 -23.584 3.43654 399.994
62 1 -23.802 1.92782 403.154 -23.802 1.92782 403.154
64 1 -22.9341 4.14299 402.264 -22.9341 4.14299 402.264
65 1 -22.0559 1.90733 401.283 -22.0559 1.90733 401.283
66 1 -21.4226 2.65713 403.655 -21.4226 2.65713 403.655
70 1 -18.8054 0.468727 400.884 -18.8054 0.468727 400.884
68 1 -20.5428 0.446225 402.747 -20.5428 0.446225 402.747
69 1 -19.691 2.65769 401.808 -19.691 2.65769 401.808
67 1 -21.1857 4.13623 400.434 -21.1857 4.13623 400.434
72 1 -17.937 2.69772 400.055 -17.937 2.69772 400.055
71 1 -18.153 1.1895 403.215 -18.153 1.1895 403.215
75 1 -15.5393 3.39802 400.494 -15.5393 3.39802 400.494
74 1 -16.4071 1.16927 401.343 -16.4071 1.16927 401.343
73 1 -17.2861 3.40444 402.324 -17.2861 3.40444 402.324
76 1 -14.8935 4.13211 402.803 -14.8935 4.13211 402.803
77 1 -14.035 1.91413 401.856 -14.035 1.91413 401.856
348 1 -15.7711 1.91688 403.712 -15.7711 1.91688 403.712
80 1 -12.2579 1.94316 400.097 -12.2579 1.94316 400.097
81 1 -11.6422 2.67125 402.387 -11.6422 2.67125 402.387
78 1 -13.1523 4.14776 400.936 -13.1523 4.14776 400.936
79 1 -12.5189 0.45395 403.291 -12.5189 0.45395 403.291
83 1 -9.89504 2.68975 400.526 -9.89504 2.68975 400.526
82 1 -10.782 0.448775 401.45 -10.782 0.448775 401.45
87 1 -7.50025 3.38914 400.982 -7.50025 3.38914 400.982
84 1 -9.24688 3.40835 402.854 -9.24688 3.40835 402.854
86 1 -8.37784 1.19594 401.963 -8.37784 1.19594 401.963
89 1 -6.63184 1.19028 400.132 -6.63184 1.19028 400.132
90 1 -5.98736 1.92679 402.444 -5.98736 1.92679 402.444
88 1 -6.86686 4.13727 403.353 -6.86686 4.13727 403.353
92 1 -4.25076 1.94972 400.581 -4.25076 1.94972 400.581
93 1 -3.59858 2.66998 402.913 -3.59858 2.66998 402.913
91 1 -5.13573 4.13882 401.505 -5.13573 4.13882 401.505
96 1 -1.85281 2.6496 401.042 -1.85281 2.6496 401.042
95 1 -2.73092 0.457794 402.022 -2.73092 0.457794 402.022
98 1 -0.982601 0.451038 400.193 -0.982601 0.451038 400.193
100 1 0.512141 3.40009 401.567 0.512141 3.40009 401.567
99 1 -0.339844 1.18842 402.505 -0.339844 1.18842 402.505
97 1 -1.21945 3.39922 403.414 -1.21945 3.39922 403.414
101 1 1.39759 1.21119 400.643 1.39759 1.21119 400.643
102 1 2.04919 1.93169 402.975 2.04919 1.93169 402.975
105 1 3.79524 1.9113 401.104 3.79524 1.9113 401.104
104 1 2.91697 4.14687 402.084 2.91697 4.14687 402.084
108 1 5.308 0.450148 402.568 5.308 0.450148 402.568
107 1 4.66535 4.14019 400.255 4.66535 4.14019 400.255
106 1 4.42836 2.661 403.476 4.42836 2.661 403.476
110 1 7.04543 0.472946 400.705 7.04543 0.472946 400.705
111 1 7.69703 1.1934 403.037 7.69703 1.1934 403.037
109 1 6.16003 2.66185 401.629 6.16003 2.66185 401.629
113 1 8.56479 3.40856 402.146 8.56479 3.40856 402.146
114 1 9.44302 1.17298 401.166 9.44302 1.17298 401.166
116 1 10.3131 3.40185 400.317 10.3131 3.40185 400.317
118 1 11.8078 1.9234 401.691 11.8078 1.9234 401.691
117 1 10.9558 4.1392 402.63 10.9558 4.1392 402.63
121 1 13.5625 1.96368 399.939 13.5625 1.96368 399.939
120 1 13.3449 0.454862 403.099 13.3449 0.454862 403.099
119 1 12.6931 4.16191 400.767 12.6931 4.16191 400.767
115 1 10.0762 1.92264 403.538 10.0762 1.92264 403.538
122 1 14.2126 2.66997 402.208 14.2126 2.66997 402.208
123 1 15.0907 0.434335 401.228 15.0907 0.434335 401.228
125 1 15.9607 2.66317 400.379 15.9607 2.66317 400.379
126 1 16.6037 3.40042 402.691 16.6037 3.40042 402.691
127 1 17.4556 1.18454 401.752 17.4556 1.18454 401.752
124 1 15.7242 1.18393 403.6 15.7242 1.18393 403.6
130 1 19.2101 1.2247 400 19.2101 1.2247 400
128 1 18.3408 3.42295 400.828 18.3408 3.42295 400.828
129 1 18.9929 4.1433 403.16 18.9929 4.1433 403.16
131 1 19.8606 1.93087 402.27 19.8606 1.93087 402.27
132 1 20.7385 4.12254 401.289 20.7385 4.12254 401.289
133 1 21.3724 0.444596 403.66 21.3724 0.444596 403.66
134 1 21.6085 1.92389 400.44 21.6085 1.92389 400.44
136 1 23.1036 0.444775 401.813 23.1036 0.444775 401.813
135 1 22.2521 2.66097 402.752 22.2521 2.66097 402.752
139 1 24.8571 0.484464 400.059 24.8571 0.484464 400.059
137 1 23.989 2.68303 400.888 23.989 2.68303 400.888
138 1 24.642 3.40359 403.22 24.642 3.40359 403.22
141 1 26.3874 3.38294 401.347 26.3874 3.38294 401.347
140 1 25.5088 1.19088 402.329 25.5088 1.19088 402.329
142 1 27.2551 1.18411 400.498 27.2551 1.18411 400.498
143 1 27.9016 1.91779 402.807 27.9016 1.91779 402.807
144 1 28.7598 4.12694 401.859 28.7598 4.12694 401.859
145 1 29.6424 1.93282 400.939 29.6424 1.93282 400.939
147 1 30.5365 4.15552 400.099 30.5365 4.15552 400.099
146 1 30.2766 2.66629 403.293 30.2766 2.66629 403.293
150 1 32.8999 0.473708 400.527 32.8999 0.473708 400.527
148 1 31.1532 0.455835 402.389 31.1532 0.455835 402.389
149 1 32.0131 2.6605 401.451 32.0131 2.6605 401.451
153 1 34.4179 3.407 401.963 34.4179 3.407 401.963
151 1 33.549 1.19221 402.855 33.549 1.19221 402.855
156 1 36.1634 3.4009 400.132 36.1634 3.4009 400.132
154 1 35.2951 1.17244 400.981 35.2951 1.17244 400.981
157 1 36.809 4.13702 402.443 36.809 4.13702 402.443
155 1 35.9296 1.92032 403.352 35.9296 1.92032 403.352
158 1 37.6603 1.92121 401.504 37.6603 1.92121 401.504
159 1 38.5452 4.15922 400.579 38.5452 4.15922 400.579
162 1 40.0659 2.66702 402.02 40.0659 2.66702 402.02
160 1 39.1984 0.452036 402.911 39.1984 0.452036 402.911
163 1 40.9437 0.431034 401.039 40.9437 0.431034 401.039
165 1 41.8139 2.6598 400.19 41.8139 2.6598 400.19
164 1 41.5783 1.1805 403.41 41.5783 1.1805 403.41
168 1 44.195 3.41892 400.639 44.195 3.41892 400.639
167 1 43.3096 1.18071 401.562 43.3096 1.18071 401.562
166 1 42.4578 3.39687 402.502 42.4578 3.39687 402.502
169 1 44.8476 4.13956 402.97 44.8476 4.13956 402.97
171 1 45.7153 1.92703 402.079 45.7153 1.92703 402.079
174 1 47.4635 1.91991 400.25 47.4635 1.91991 400.25
175 1 48.1073 2.65715 402.561 48.1073 2.65715 402.561
172 1 46.5934 4.11857 401.098 46.5934 4.11857 401.098
173 1 47.2277 0.440788 403.47 47.2277 0.440788 403.47
177 1 49.8446 2.6793 400.698 49.8446 2.6793 400.698
176 1 48.9592 0.441043 401.622 48.9592 0.441043 401.622
179 1 50.7144 0.481039 399.87 50.7144 0.481039 399.87
181 1 52.243 3.37909 401.158 52.243 3.37909 401.158
178 1 50.4971 3.40003 403.03 50.4971 3.40003 403.03
180 1 51.3649 1.18753 402.139 51.3649 1.18753 402.139
183 1 53.1131 1.18046 400.31 53.1131 1.18046 400.31
184 1 53.7568 1.9178 402.621 53.7568 1.9178 402.621
186 1 55.4942 1.94002 400.758 55.4942 1.94002 400.758
187 1 56.1467 2.66081 403.09 56.1467 2.66081 403.09
188 1 56.364 4.16923 399.93 56.364 4.16923 399.93
185 1 54.6088 4.12918 401.682 54.6088 4.12918 401.682
182 1 52.8772 4.12887 403.53 52.8772 4.12887 403.53
189 1 57.0145 0.448332 402.199 57.0145 0.448332 402.199
192 1 58.7628 0.441296 400.37 58.7628 0.441296 400.37
194 1 60.2584 3.39012 401.743 60.2584 3.39012 401.743
193 1 59.4064 1.17872 402.682 59.4064 1.17872 402.682
190 1 57.8926 2.63992 401.219 57.8926 2.63992 401.219
191 1 58.5268 3.38978 403.59 58.5268 3.38978 403.59
195 1 61.1438 1.20099 400.819 61.1438 1.20099 400.819
197 1 62.0136 3.4302 399.99 62.0136 3.4302 399.99
199 1 63.5422 1.90095 401.279 63.5422 1.90095 401.279
196 1 61.7962 1.92182 403.15 61.7962 1.92182 403.15
198 1 62.664 4.1368 402.26 62.664 4.1368 402.26
200 1 64.1763 2.65086 403.65 64.1763 2.65086 403.65
202 1 65.056 0.439796 402.742 65.056 0.439796 402.742
201 1 64.4123 4.12978 400.43 64.4123 4.12978 400.43
206 1 67.663 2.69131 400.051 67.663 2.69131 400.051
204 1 66.7932 0.46208 400.879 66.7932 0.46208 400.879
203 1 65.9079 2.65121 401.803 65.9079 2.65121 401.803
205 1 67.4458 1.1829 403.21 67.4458 1.1829 403.21
207 1 68.3136 3.39787 402.32 68.3136 3.39787 402.32
209 1 70.0618 3.39079 400.49 70.0618 3.39079 400.49
208 1 69.1916 1.16195 401.339 69.1916 1.16195 401.339
211 1 71.5573 1.91197 401.863 71.5573 1.91197 401.863
210 1 70.7057 4.12822 402.802 70.7057 4.12822 402.802
212 1 72.4429 4.15024 400.939 72.4429 4.15024 400.939
214 1 73.3114 1.95173 400.11 73.3114 1.95173 400.11
217 1 75.7096 2.65183 400.548 75.7096 2.65183 400.548
216 1 74.8417 0.423146 401.397 74.8417 0.423146 401.397
215 1 73.963 2.65858 402.379 73.963 2.65858 402.379
213 1 73.0961 0.443824 403.27 73.0961 0.443824 403.27
218 1 76.3562 3.38595 402.857 76.3562 3.38595 402.857
220 1 78.0972 3.40115 400.989 78.0972 3.40115 400.989
219 1 77.2145 1.16771 401.909 77.2145 1.16771 401.909
222 1 78.9917 1.19651 400.15 78.9917 1.19651 400.15
223 1 79.6081 1.9246 402.44 79.6081 1.9246 402.44
221 1 78.7314 4.13498 403.343 78.7314 4.13498 403.343
224 1 80.4681 4.12932 401.502 80.4681 4.12932 401.502
225 1 81.3551 1.94267 400.578 81.3551 1.94267 400.578
229 1 83.7503 2.64188 401.033 83.7503 2.64188 401.033
228 1 82.8729 0.448893 402.015 82.8729 0.448893 402.015
226 1 82.0039 2.6615 402.906 82.0039 2.6615 402.906
231 1 84.6187 0.442946 400.184 84.6187 0.442946 400.184
234 1 87.0002 1.20195 400.632 87.0002 1.20195 400.632
233 1 86.1153 3.39124 401.556 86.1153 3.39124 401.556
235 1 87.653 1.92239 402.963 87.653 1.92239 402.963
232 1 85.2638 1.17946 402.495 85.2638 1.17946 402.495
230 1 84.3844 3.39015 403.404 84.3844 3.39015 403.404
241 1 90.9117 0.440241 402.556 90.9117 0.440241 402.556
238 1 89.3984 1.90154 401.092 89.3984 1.90154 401.092
240 1 90.2685 4.13033 400.243 90.2685 4.13033 400.243
237 1 88.5205 4.13743 402.073 88.5205 4.13743 402.073
239 1 90.0324 2.65134 403.464 90.0324 2.65134 403.464
242 1 91.7635 2.65164 401.617 91.7635 2.65164 401.617
243 1 92.6487 0.462488 400.693 92.6487 0.462488 400.693
247 1 95.0461 1.16189 401.154 95.0461 1.16189 401.154
246 1 94.1683 3.39788 402.134 94.1683 3.39788 402.134
244 1 93.3008 1.1831 403.025 93.3008 1.1831 403.025
254 1 99.1629 1.94986 399.927 99.1629 1.94986 399.927
249 1 95.9162 3.39054 400.305 95.9162 3.39054 400.305
253 1 98.9481 0.443364 403.087 98.9481 0.443364 403.087
251 1 97.41 1.91143 401.68 97.41 1.91143 401.68
252 1 98.2954 4.14901 400.756 98.2954 4.14901 400.756
250 1 96.559 4.12801 402.618 96.559 4.12801 402.618
248 1 95.6799 1.91212 403.526 95.6799 1.91212 403.526
258 1 101.559 2.64513 400.368 101.559 2.64513 400.368
255 1 99.8141 2.65683 402.197 99.8141 2.65683 402.197
259 1 102.201 3.39239 402.686 102.201 3.39239 402.686
260 1 103.048 1.17731 401.759 103.048 1.17731 401.759
256 1 100.692 0.419244 401.217 100.692 0.419244 401.217
257 1 101.325 1.17682 403.593 101.325 1.17682 403.593
263 1 104.762 1.20415 400.012 104.762 1.20415 400.012
261 1 103.918 3.4149 400.83 103.918 3.4149 400.83
264 1 105.484 1.92421 402.23 105.484 1.92421 402.23
265 1 106.333 4.12031 401.278 106.333 4.12031 401.278
262 1 104.604 4.13856 403.14 104.604 4.13856 403.14
266 1 106.989 0.437997 403.637 106.989 0.437997 403.637
268 1 -62.7107 3.39897 405.06 -62.7107 3.39897 405.06
271 1 -61.1964 1.92383 406.499 -61.1964 1.92383 406.499
270 1 -61.8444 1.19486 404.12 -61.8444 1.19486 404.12
267 1 -63.5786 1.18112 406 -63.5786 1.18112 406
272 1 -60.3288 4.14338 405.567 -60.3288 4.14338 405.567
269 1 -62.0659 4.13245 407.436 -62.0659 4.13245 407.436
277 1 -57.9332 0.44956 406.075 -57.9332 0.44956 406.075
274 1 -59.4547 1.93205 404.635 -59.4547 1.93205 404.635
278 1 -57.0522 2.65859 405.143 -57.0522 2.65859 405.143
275 1 -58.8073 2.66223 407.001 -58.8073 2.66223 407.001
276 1 -58.5735 4.14036 403.725 -58.5735 4.14036 403.725
279 1 -56.4147 3.39459 407.506 -56.4147 3.39459 407.506
280 1 -56.1755 0.441015 404.219 -56.1755 0.441015 404.219
286 1 -52.9155 3.38703 403.768 -52.9155 3.38703 403.768
282 1 -54.6613 3.39101 405.643 -54.6613 3.39101 405.643
284 1 -53.7857 1.17887 404.72 -53.7857 1.17887 404.72
281 1 -55.5389 1.17947 406.579 -55.5389 1.17947 406.579
285 1 -53.1488 1.91533 407.081 -53.1488 1.91533 407.081
291 1 -49.8888 0.442663 406.647 -49.8888 0.442663 406.647
288 1 -51.402 1.91879 405.216 -51.402 1.91879 405.216
292 1 -49.017 2.66048 405.714 -49.017 2.66048 405.714
287 1 -52.2757 4.1284 406.144 -52.2757 4.1284 406.144
290 1 -50.5344 4.1324 404.278 -50.5344 4.1324 404.278
294 1 -48.1429 0.450954 404.784 -48.1429 0.450954 404.784
297 1 -46.629 3.39741 406.215 -46.629 3.39741 406.215
296 1 -47.2743 2.66391 403.85 -47.2743 2.66391 403.85
298 1 -45.7558 1.18537 405.279 -45.7558 1.18537 405.279
295 1 -47.5007 1.18197 407.147 -47.5007 1.18197 407.147
300 1 -44.8824 3.40132 404.356 -44.8824 3.40132 404.356
306 1 -41.625 1.92356 403.911 -41.625 1.92356 403.911
302 1 -43.3672 1.92073 405.777 -43.3672 1.92073 405.777
304 1 -42.4912 4.13814 404.846 -42.4912 4.13814 404.846
301 1 -44.2385 4.13431 406.714 -44.2385 4.13431 406.714
305 1 -41.8503 0.443107 407.211 -41.8503 0.443107 407.211
307 1 -40.9794 2.65808 406.278 -40.9794 2.65808 406.278
310 1 -39.2348 2.66324 404.416 -39.2348 2.66324 404.416
312 1 -37.7191 1.18284 405.838 -37.7191 1.18284 405.838
311 1 -38.5898 3.39596 406.776 -38.5898 3.39596 406.776
308 1 -40.1066 0.446537 405.34 -40.1066 0.446537 405.34
313 1 -36.8437 3.40035 404.907 -36.8437 3.40035 404.907
315 1 -35.9775 1.18559 403.973 -35.9775 1.18559 403.973
316 1 -35.3315 1.92035 406.34 -35.3315 1.92035 406.34
317 1 -34.4588 4.13618 405.402 -34.4588 4.13618 405.402
314 1 -36.2021 4.13272 407.273 -36.2021 4.13272 407.273
319 1 -33.587 1.92529 404.478 -33.587 1.92529 404.478
320 1 -32.9419 2.65821 406.838 -32.9419 2.65821 406.838
324 1 -30.3294 0.447612 404.035 -30.3294 0.447612 404.035
321 1 -32.0711 0.445015 405.9 -32.0711 0.445015 405.9
322 1 -31.1956 2.66243 404.97 -31.1956 2.66243 404.97
323 1 -30.554 3.39495 407.335 -30.554 3.39495 407.335
325 1 -29.6834 1.18251 406.402 -29.6834 1.18251 406.402
328 1 -27.9388 1.18733 404.541 -27.9388 1.18733 404.541
326 1 -28.8107 3.39828 405.465 -28.8107 3.39828 405.465
329 1 -27.2936 1.92034 406.9 -27.2936 1.92034 406.9
330 1 -26.4229 4.13455 405.963 -26.4229 4.13455 405.963
331 1 -25.5474 1.92447 405.032 -25.5474 1.92447 405.032
337 1 -22.2904 0.449257 404.603 -22.2904 0.449257 404.603
334 1 -24.035 0.444532 406.464 -24.035 0.444532 406.464
335 1 -23.1624 2.66024 405.527 -23.1624 2.66024 405.527
333 1 -24.6811 4.13706 404.098 -24.6811 4.13706 404.098
338 1 -21.6452 1.18222 406.963 -21.6452 1.18222 406.963
332 1 -24.9057 2.65702 407.397 -24.9057 2.65702 407.397
340 1 -19.8987 1.18623 405.094 -19.8987 1.18623 405.094
342 1 -19.0327 3.3987 404.159 -19.0327 3.3987 404.159
339 1 -20.7745 3.39635 406.025 -20.7745 3.39635 406.025
344 1 -17.513 1.92113 405.587 -17.513 1.92113 405.587
343 1 -18.3866 4.13316 406.526 -18.3866 4.13316 406.526
341 1 -19.2572 1.91847 407.459 -19.2572 1.91847 407.459
347 1 -15.9993 0.443987 407.027 -15.9993 0.443987 407.027
349 1 -15.1284 2.65817 406.088 -15.1284 2.65817 406.088
346 1 -16.6416 4.13706 404.663 -16.6416 4.13706 404.663
350 1 -14.256 0.448233 405.16 -14.256 0.448233 405.16
351 1 -13.6123 1.1834 407.526 -13.6123 1.1834 407.526
353 1 -12.7412 3.39923 406.591 -12.7412 3.39923 406.591
352 1 -13.3883 2.66129 404.223 -13.3883 2.66129 404.223
354 1 -11.87 1.18935 405.658 -11.87 1.18935 405.658
356 1 -10.9959 3.40699 404.728 -10.9959 3.40699 404.728
358 1 -10.1275 1.19214 403.795 -10.1275 1.19214 403.795
357 1 -10.3528 4.13817 407.092 -10.3528 4.13817 407.092
363 1 -7.09065 2.6627 406.659 -7.09065 2.6627 406.659
359 1 -9.48141 1.92599 406.16 -9.48141 1.92599 406.16
362 1 -7.73502 1.9295 404.301 -7.73502 1.9295 404.301
360 1 -8.60838 4.14121 405.224 -8.60838 4.14121 405.224
364 1 -6.21944 0.448976 405.722 -6.21944 0.448976 405.722
368 1 -4.47745 0.451538 403.857 -4.47745 0.451538 403.857
366 1 -5.34353 2.66625 404.792 -5.34353 2.66625 404.792
369 1 -3.83147 1.18622 406.223 -3.83147 1.18622 406.223
367 1 -4.70229 3.39881 407.156 -4.70229 3.39881 407.156
370 1 -2.95881 3.40203 405.286 -2.95881 3.40203 405.286
372 1 -2.08712 1.19119 404.362 -2.08712 1.19119 404.362
376 1 0.304063 1.92824 404.853 0.304063 1.92824 404.853
373 1 -1.44189 1.924 406.721 -1.44189 1.924 406.721
374 1 -0.571282 4.13826 405.784 -0.571282 4.13826 405.784
379 1 1.81635 0.448224 406.285 1.81635 0.448224 406.285
378 1 1.17016 4.14088 403.918 1.17016 4.14088 403.918
377 1 0.945811 2.66067 407.218 0.945811 2.66067 407.218
383 1 4.20592 1.18597 406.784 4.20592 1.18597 406.784
380 1 2.68886 2.66399 405.348 2.68886 2.66399 405.348
382 1 3.56062 0.453033 404.424 3.56062 0.453033 404.424
384 1 5.0765 3.40015 405.846 5.0765 3.40015 405.846
385 1 5.95188 1.19006 404.915 5.95188 1.19006 404.915
387 1 6.818 3.40264 403.981 6.818 3.40264 403.981
388 1 7.46421 4.13748 406.348 7.46421 4.13748 406.348
386 1 6.59368 1.92255 407.281 6.59368 1.92255 407.281
389 1 8.33674 1.92572 405.41 8.33674 1.92572 405.41
391 1 9.20849 4.14217 404.486 9.20849 4.14217 404.486
392 1 9.85386 0.447665 406.846 9.85386 0.447665 406.846
393 1 10.7244 2.66179 405.908 10.7244 2.66179 405.908
394 1 11.5998 0.451632 404.977 11.5998 0.451632 404.977
396 1 12.4659 2.66416 404.043 12.4659 2.66416 404.043
397 1 13.1122 3.39898 406.409 13.1122 3.39898 406.409
395 1 12.2417 1.18411 407.343 12.2417 1.18411 407.343
398 1 13.9848 1.18715 405.472 13.9848 1.18715 405.472
400 1 14.8565 3.40353 404.548 14.8565 3.40353 404.548
401 1 15.502 4.13644 406.907 15.502 4.13644 406.907
402 1 16.3726 1.92303 405.97 16.3726 1.92303 405.97
403 1 17.2479 4.14025 405.039 17.2479 4.14025 405.039
405 1 18.114 1.92524 404.104 18.114 1.92524 404.104
406 1 18.7606 2.65999 406.471 18.7606 2.65999 406.471
409 1 20.5049 2.66436 404.609 20.5049 2.66436 404.609
410 1 21.1506 3.39712 406.968 21.1506 3.39712 406.968
407 1 19.6331 0.448069 405.533 19.6331 0.448069 405.533
404 1 17.89 0.445198 407.404 17.89 0.445198 407.404
412 1 22.8967 3.40074 405.099 22.8967 3.40074 405.099
411 1 22.0211 1.18359 406.03 22.0211 1.18359 406.03
415 1 24.4093 1.91976 406.53 24.4093 1.91976 406.53
414 1 23.7625 1.18554 404.164 23.7625 1.18554 404.164
416 1 25.2827 4.13496 405.591 25.2827 4.13496 405.591
413 1 23.5388 4.13273 407.464 23.5388 4.13273 407.464
418 1 26.1539 1.92322 404.667 26.1539 1.92322 404.667
419 1 26.7969 2.65732 407.03 26.7969 2.65732 407.03
420 1 27.0242 4.13024 403.715 27.0242 4.13024 403.715
421 1 27.6677 0.443798 406.091 27.6677 0.443798 406.091
422 1 28.5399 2.66108 405.163 28.5399 2.66108 405.163
424 1 29.4074 0.44642 404.225 29.4074 0.44642 404.225
426 1 30.9264 3.40143 405.66 30.9264 3.40143 405.66
425 1 30.0553 1.18409 406.593 30.0553 1.18409 406.593
430 1 32.6685 3.40371 403.796 32.6685 3.40371 403.796
428 1 31.8003 1.19136 404.73 31.8003 1.19136 404.73
429 1 32.4442 1.92225 407.093 32.4442 1.92225 407.093
432 1 34.1884 1.92481 405.224 34.1884 1.92481 405.224
431 1 33.3155 4.13728 406.161 33.3155 4.13728 406.161
435 1 35.7068 0.445751 406.658 35.7068 0.445751 406.658
436 1 36.5779 2.65923 405.721 36.5779 2.65923 405.721
434 1 35.0616 4.1403 404.301 35.0616 4.1403 404.301
440 1 38.3196 2.66128 403.855 38.3196 2.66128 403.855
438 1 37.4537 0.448807 404.79 37.4537 0.448807 404.79
439 1 38.0959 1.18108 407.154 38.0959 1.18108 407.154
442 1 39.8391 1.18385 405.283 39.8391 1.18385 405.283
441 1 38.9666 3.39571 406.221 38.9666 3.39571 406.221
444 1 40.7107 3.40022 404.359 40.7107 3.40022 404.359
446 1 42.2274 1.91936 405.78 42.2274 1.91936 405.78
445 1 41.3569 4.13278 406.718 41.3569 4.13278 406.718
450 1 43.9687 1.92151 403.914 43.9687 1.92151 403.914
451 1 44.6158 2.65613 406.28 44.6158 2.65613 406.28
448 1 43.1027 4.13658 404.849 43.1027 4.13658 404.849
449 1 43.7454 0.441321 407.213 43.7454 0.441321 407.213
452 1 45.4883 0.444257 405.342 45.4883 0.444257 405.342
454 1 46.36 2.66055 404.418 46.36 2.66055 404.418
457 1 48.7521 3.39705 404.908 48.7521 3.39705 404.908
455 1 47.0062 3.39332 406.777 47.0062 3.39332 406.777
456 1 47.8767 1.17987 405.839 47.8767 1.17987 405.839
459 1 49.6181 1.18197 403.973 49.6181 1.18197 403.973
458 1 49.3947 4.12942 407.273 49.3947 4.12942 407.273
460 1 50.2652 1.91677 406.34 50.2652 1.91677 406.34
463 1 52.0095 1.92117 404.478 52.0095 1.92117 404.478
461 1 51.1377 4.13233 405.402 51.1377 4.13233 405.402
464 1 52.6556 2.65408 406.837 52.6556 2.65408 406.837
465 1 53.5262 0.440627 405.899 53.5262 0.440627 405.899
468 1 55.2677 0.442745 404.034 55.2677 0.442745 404.034
466 1 54.4016 2.65781 404.968 54.4016 2.65781 404.968
469 1 55.9147 1.17765 406.4 55.9147 1.17765 406.4
467 1 55.0442 3.39031 407.333 55.0442 3.39031 407.333
470 1 56.7873 3.39321 405.462 56.7873 3.39321 405.462
472 1 57.659 1.18207 404.538 57.659 1.18207 404.538
475 1 60.0511 1.91882 405.029 60.0511 1.91882 405.029
473 1 58.3052 1.91508 406.897 58.3052 1.91508 406.897
474 1 59.1758 4.12908 405.96 59.1758 4.12908 405.96
477 1 60.9172 4.1312 404.094 60.9172 4.1312 404.094
481 1 63.3086 0.44315 404.599 63.3086 0.44315 404.599
478 1 61.5643 0.438746 406.46 61.5643 0.438746 406.46
479 1 62.4368 2.65431 405.523 62.4368 2.65431 405.523
482 1 63.9548 1.17625 406.958 63.9548 1.17625 406.958
476 1 60.6938 2.65141 407.393 60.6938 2.65141 407.393
483 1 64.8254 3.39024 406.02 64.8254 3.39024 406.02
486 1 66.5668 3.39233 404.154 66.5668 3.39233 404.154
488 1 68.0865 1.91543 405.583 68.0865 1.91543 405.583
484 1 65.7007 1.17995 405.089 65.7007 1.17995 405.089
487 1 67.214 4.12737 406.52 67.214 4.12737 406.52
485 1 66.3434 1.9126 407.454 66.3434 1.9126 407.454
490 1 68.9583 4.13171 404.659 68.9583 4.13171 404.659
493 1 70.475 2.65125 406.08 70.475 2.65125 406.08
491 1 69.6045 0.437337 407.018 69.6045 0.437337 407.018
494 1 71.3507 0.440945 405.149 71.3507 0.440945 405.149
492 1 69.8259 1.91188 403.71 69.8259 1.91188 403.71
496 1 72.2166 2.6532 404.214 72.2166 2.6532 404.214
497 1 72.8636 3.38782 406.58 72.8636 3.38782 406.58
500 1 74.6083 3.39134 404.717 74.6083 3.39134 404.717
498 1 73.737 1.1756 405.641 73.737 1.1756 405.641
502 1 75.4787 1.17092 403.765 75.4787 1.17092 403.765
501 1 75.2515 4.12587 407.08 75.2515 4.12587 407.08
503 1 76.1223 1.91238 406.141 76.1223 1.91238 406.141
506 1 77.8621 1.91506 404.275 77.8621 1.91506 404.275
507 1 78.5101 2.65323 406.643 78.5101 2.65323 406.643
504 1 76.9946 4.12969 405.213 76.9946 4.12969 405.213
508 1 79.3812 0.44314 405.71 79.3812 0.44314 405.71
510 1 80.2551 2.66056 404.78 80.2551 2.66056 404.78
512 1 81.1234 0.445486 403.847 81.1234 0.445486 403.847
514 1 82.6432 3.39458 405.275 82.6432 3.39458 405.275
516 1 83.5164 1.18264 404.352 83.5164 1.18264 404.352
513 1 81.7704 1.17959 406.212 81.7704 1.17959 406.212
511 1 80.8991 3.39201 407.144 80.8991 3.39201 407.144
517 1 84.1617 1.91617 406.71 84.1617 1.91617 406.71
523 1 87.4212 0.439298 406.274 87.4212 0.439298 406.274
520 1 85.9084 1.91917 404.842 85.9084 1.91917 404.842
518 1 85.0327 4.12962 405.773 85.0327 4.12962 405.773
522 1 86.7743 4.13164 403.907 86.7743 4.13164 403.907
521 1 86.5506 2.6522 407.206 86.5506 2.6522 407.206
526 1 89.165 0.44364 404.412 89.165 0.44364 404.412
528 1 90.6816 3.39098 405.834 90.6816 3.39098 405.834
524 1 88.2936 2.6548 405.336 88.2936 2.6548 405.336
529 1 91.5566 1.18054 404.903 91.5566 1.18054 404.903
527 1 89.8114 1.17711 406.771 89.8114 1.17711 406.771
536 1 95.4604 0.439583 406.833 95.4604 0.439583 406.833
531 1 92.4222 3.39275 403.968 92.4222 3.39275 403.968
533 1 93.9418 1.91638 405.398 93.9418 1.91638 405.398
532 1 93.0698 4.12859 406.335 93.0698 4.12859 406.335
535 1 94.8129 4.13229 404.474 94.8129 4.13229 404.474
530 1 92.1997 1.91403 407.268 92.1997 1.91403 407.268
538 1 97.2049 0.442339 404.965 97.2049 0.442339 404.965
541 1 98.7191 3.39264 406.397 98.7191 3.39264 406.397
540 1 98.0698 2.65392 404.031 98.0698 2.65392 404.031
537 1 96.3302 2.65318 405.896 96.3302 2.65318 405.896
539 1 97.8496 1.17791 407.329 97.8496 1.17791 407.329
546 1 101.986 1.91923 405.951 101.986 1.91923 405.951
544 1 100.46 3.39663 404.538 100.46 3.39663 404.538
542 1 99.5905 1.18064 405.461 99.5905 1.18064 405.461
547 1 102.861 4.13663 405.02 102.861 4.13663 405.02
545 1 101.114 4.13229 406.89 101.114 4.13229 406.89
553 1 106.121 2.65732 404.575 106.121 2.65732 404.575
550 1 104.377 2.65449 406.445 104.377 2.65449 406.445
554 1 106.766 3.39244 406.938 106.766 3.39244 406.938
549 1 103.733 1.92182 404.08 103.733 1.92182 404.08
551 1 105.249 0.442178 405.507 105.249 0.442178 405.507
548 1 103.506 0.440131 407.381 103.506 0.440131 407.381
560 1 -61.4203 0.438192 409.805 -61.4203 0.438192 409.805
558 1 -62.9356 1.91522 408.371 -62.9356 1.91522 408.371
562 1 -60.5494 2.65532 408.87 -60.5494 2.65532 408.87
559 1 -62.2911 2.64906 410.74 -62.2911 2.64906 410.74
556 1 -63.8067 4.12632 409.307 -63.8067 4.12632 409.307
273 1 -59.6794 0.445427 407.936 -59.6794 0.445427 407.936
565 1 -58.1618 3.39308 409.37 -58.1618 3.39308 409.37
568 1 -56.645 1.91399 410.805 -56.645 1.91399 410.805
567 1 -57.2896 1.18126 408.439 -57.2896 1.18126 408.439
564 1 -59.0333 1.17681 410.305 -59.0333 1.17681 410.305
563 1 -59.9042 3.38774 411.239 -59.9042 3.38774 411.239
573 1 -53.3824 0.437599 410.375 -53.3824 0.437599 410.375
571 1 -54.8988 1.91569 408.942 -54.8988 1.91569 408.942
283 1 -54.0239 4.12871 408.009 -54.0239 4.12871 408.009
569 1 -55.7724 4.12893 409.872 -55.7724 4.12893 409.872
574 1 -52.5085 2.65205 409.444 -52.5085 2.65205 409.444
572 1 -54.2558 2.6506 411.307 -54.2558 2.6506 411.307
576 1 -51.6347 0.43865 408.511 -51.6347 0.43865 408.511
578 1 -50.1192 3.38962 409.945 -50.1192 3.38962 409.945
289 1 -50.7609 2.65448 407.581 -50.7609 2.65448 407.581
580 1 -49.2461 1.17731 409.012 -49.2461 1.17731 409.012
577 1 -50.9927 1.17458 410.877 -50.9927 1.17458 410.877
293 1 -48.3735 3.39329 408.08 -48.3735 3.39329 408.08
299 1 -45.1119 1.91848 407.645 -45.1119 1.91848 407.645
583 1 -46.8572 1.91511 409.512 -46.8572 1.91511 409.512
585 1 -45.9845 4.1306 408.579 -45.9845 4.1306 408.579
582 1 -47.7301 4.12715 410.445 -47.7301 4.12715 410.445
586 1 -45.3411 0.436696 410.943 -45.3411 0.436696 410.943
589 1 -43.5957 0.439909 409.078 -43.5957 0.439909 409.078
591 1 -42.0798 3.38871 410.509 -42.0798 3.38871 410.509
303 1 -42.7236 2.65481 408.144 -42.7236 2.65481 408.144
587 1 -44.4685 2.65192 410.01 -44.4685 2.65192 410.01
592 1 -41.207 1.17663 409.575 -41.207 1.17663 409.575
309 1 -39.4624 1.17987 407.707 -39.4624 1.17987 407.707
594 1 -40.3348 3.39191 408.642 -40.3348 3.39191 408.642