ITEM: TIMESTEP
0
ITEM: NUMBER OF ATOMS
4630
ITEM: BOX BOUNDS xy xz yz pp pp pp
-6.2842323312518381e+01 1.0586135516071838e+02 0.0000000000000000e+00
0.0000000000000000e+00 4.4274527100805940e+00 0.0000000000000000e+00
3.8000000000000000e+02 5.0000000000000000e+02 0.0000000000000000e+00
ITEM: ATOMS id type x y z xu yu zu
7 1 -58.6483 2.93134 398.845 -58.6483 2.93134 398.845
27 1 -45.2467 2.22174 399.38 -45.2467 2.22174 399.38
36 1 -39.6714 1.47939 399.437 -39.6714 1.47939 399.437
45 1 -34.1002 0.739397 399.498 -34.1002 0.739397 399.498
85 1 -8.6152 0.740301 399.325 -8.6152 0.740301 399.325
94 1 -3.0409 4.42585 399.387 -3.0409 4.42585 399.387
103 1 2.52801 3.68704 399.453 2.52801 3.68704 399.453
112 1 8.09495 2.94885 399.52 8.09495 2.94885 399.52
152 1 33.5533 2.95963 399.357 33.5533 2.95963 399.357
161 1 39.1223 2.21883 399.417 39.1223 2.21883 399.417
170 1 44.6868 1.48062 399.48 44.6868 1.48062 399.48
227 1 81.2687 0.0106865 399.409 81.2687 0.0106865 399.409
236 1 86.8397 3.69646 399.463 86.8397 3.69646 399.463
245 1 92.4068 2.95735 399.521 92.4068 2.95735 399.521
5 1 -59.5552 0.714558 399.643 -59.5552 0.714558 399.643
2 1 -61.3188 0.727065 401.441 -61.3188 0.727065 401.441
3 1 -60.4694 2.93967 400.533 -60.4694 2.93967 400.533
1 1 -62.159 2.90822 402.391 106.545 2.90822 402.391
4 1 -59.8085 3.6555 402.877 -59.8085 3.6555 402.877
9 1 -57.1777 1.37946 400.104 -57.1777 1.37946 400.104
8 1 -58.0502 3.6367 401.068 -58.0502 3.6367 401.068
10 1 -56.5698 2.14597 402.47 -56.5698 2.14597 402.47
6 1 -58.9389 1.4426 401.945 -58.9389 1.4426 401.945
11 1 -55.7162 4.37067 401.549 -55.7162 4.37067 401.549
12 1 -54.8597 2.19639 400.592 -54.8597 2.19639 400.592
16 1 -52.4939 2.89025 401.052 -52.4939 2.89025 401.052
15 1 -53.3578 0.686528 402.04 -53.3578 0.686528 402.04
14 1 -54.0241 4.42578 399.749 -54.0241 4.42578 399.749
17 1 -51.641 0.691487 400.191 -51.641 0.691487 400.191
13 1 -54.2101 2.88847 402.95 -54.2101 2.88847 402.95
22 1 -48.4254 3.66469 399.79 -48.4254 3.66469 399.79
20 1 -49.2895 1.44382 400.642 -49.2895 1.44382 400.642
19 1 -50.1586 3.63307 401.579 -50.1586 3.63307 401.579
18 1 -51.0041 1.41442 402.526 -51.0041 1.41442 402.526
21 1 -48.6631 2.16134 403.022 -48.6631 2.16134 403.022
23 1 -47.8025 4.38601 402.102 -47.8025 4.38601 402.102
26 1 -45.4383 0.689651 402.572 -45.4383 0.689651 402.572
24 1 -46.9552 2.17496 401.165 -46.9552 2.17496 401.165
28 1 -44.5837 2.9109 401.666 -44.5837 2.9109 401.666
25 1 -46.0862 4.42007 400.224 -46.0862 4.42007 400.224
29 1 -43.7169 0.684678 400.679 -43.7169 0.684678 400.679
31 1 -42.8607 2.91323 399.82 -42.8607 2.91323 399.82
34 1 -40.5134 3.67802 400.278 -40.5134 3.67802 400.278
32 1 -42.2267 3.64092 402.155 -42.2267 3.64092 402.155
33 1 -41.386 1.43399 401.217 -41.386 1.43399 401.217
30 1 -43.0925 1.41732 403.076 -43.0925 1.41732 403.076
35 1 -39.8674 4.37689 402.629 -39.8674 4.37689 402.629
40 1 -37.2878 2.17247 399.879 -37.2878 2.17247 399.879
37 1 -39.0135 2.17021 401.724 -39.0135 2.17021 401.724
41 1 -36.6563 2.90061 402.215 -36.6563 2.90061 402.215
38 1 -38.1446 4.37114 400.738 -38.1446 4.37114 400.738
39 1 -37.5224 0.677362 403.136 -37.5224 0.677362 403.136
43 1 -34.9419 2.93802 400.34 -34.9419 2.93802 400.34
42 1 -35.8146 0.693763 401.278 -35.8146 0.693763 401.278
44 1 -34.2971 3.6367 402.691 -34.2971 3.6367 402.691
46 1 -33.4428 1.43006 401.786 -33.4428 1.43006 401.786
47 1 -32.5737 3.63114 400.8 -32.5737 3.63114 400.8
49 1 -31.7169 1.43245 399.941 -31.7169 1.43245 399.941
52 1 -29.3714 2.198 400.402 -29.3714 2.198 400.402
50 1 -31.0861 2.16051 402.278 -31.0861 2.16051 402.278
51 1 -30.2443 4.38119 401.341 -30.2443 4.38119 401.341
53 1 -28.7271 2.8965 402.754 -28.7271 2.8965 402.754
54 1 -28.5299 4.42681 399.561 -28.5299 4.42681 399.561
48 1 -31.9524 4.36469 403.198 -31.9524 4.36469 403.198
58 1 -26.1469 0.692254 400.005 -26.1469 0.692254 400.005
59 1 -25.5165 1.42025 402.341 -25.5165 1.42025 402.341
56 1 -27.0036 2.89099 400.863 -27.0036 2.89099 400.863
55 1 -27.8728 0.689861 401.849 -27.8728 0.689861 401.849
60 1 -24.6746 3.64096 401.405 -24.6746 3.64096 401.405
57 1 -26.3827 3.62445 403.262 -26.3827 3.62445 403.262
61 1 -23.8019 1.45776 400.466 -23.8019 1.45776 400.466
63 1 -22.9605 3.68655 399.625 -22.9605 3.68655 399.625
62 1 -23.1577 2.15604 402.817 -23.1577 2.15604 402.817
64 1 -22.3034 4.37683 401.913 -22.3034 4.37683 401.913
65 1 -21.4344 2.15045 400.927 -21.4344 2.15045 400.927
66 1 -20.8137 2.88385 403.326 -20.8137 2.88385 403.326
70 1 -18.2331 0.716882 400.53 -18.2331 0.716882 400.53
68 1 -19.9473 0.679599 402.405 -19.9473 0.679599 402.405
69 1 -19.106 2.9001 401.469 -19.106 2.9001 401.469
67 1 -20.5777 4.37914 400.068 -20.5777 4.37914 400.068
72 1 -17.3937 2.94532 399.687 -17.3937 2.94532 399.687
71 1 -17.5883 1.41526 402.881 -17.5883 1.41526 402.881
75 1 -15.0119 3.63868 400.13 -15.0119 3.63868 400.13
74 1 -15.8658 1.41013 400.989 -15.8658 1.41013 400.989
73 1 -16.7354 3.63578 401.976 -16.7354 3.63578 401.976
76 1 -14.378 4.36186 402.464 -14.378 4.36186 402.464
77 1 -13.5302 2.15238 401.519 -13.5302 2.15238 401.519
348 1 -15.2417 2.14053 403.385 -15.2417 2.14053 403.385
80 1 -11.7945 2.18358 399.732 -11.7945 2.18358 399.732
81 1 -11.1739 2.90498 402.044 -11.1739 2.90498 402.044
78 1 -12.66 4.39023 400.583 -12.66 4.39023 400.583
79 1 -12.036 0.680653 402.963 -12.036 0.680653 402.963
83 1 -9.45546 2.93866 400.168 -9.45546 2.93866 400.168
82 1 -10.3257 0.693647 401.108 -10.3257 0.693647 401.108
87 1 -7.08665 3.63076 400.625 -7.08665 3.63076 400.625
84 1 -8.80983 3.63592 402.517 -8.80983 3.63592 402.517
86 1 -7.9544 1.42957 401.612 -7.9544 1.42957 401.612
89 1 -6.22972 1.43185 399.767 -6.22972 1.43185 399.767
90 1 -5.59793 2.15971 402.103 -5.59793 2.15971 402.103
88 1 -6.4644 4.36359 403.024 -6.4644 4.36359 403.024
92 1 -3.88324 2.19701 400.228 -3.88324 2.19701 400.228
93 1 -3.23921 2.89581 402.58 -3.23921 2.89581 402.58
91 1 -4.75644 4.38032 401.166 -4.75644 4.38032 401.166
96 1 -1.51521 2.89034 400.69 -1.51521 2.89034 400.69
95 1 -2.38476 0.689206 401.675 -2.38476 0.689206 401.675
98 1 -0.658051 0.691702 399.832 -0.658051 0.691702 399.832
100 1 0.813429 3.64103 401.233 0.813429 3.64103 401.233
99 1 -0.0287196 1.42008 402.169 -0.0287196 1.42008 402.169
97 1 -0.895219 3.6241 403.089 -0.895219 3.6241 403.089
101 1 1.68652 1.45815 400.295 1.68652 1.45815 400.295
102 1 2.32951 2.15652 402.647 2.32951 2.15652 402.647
105 1 4.05355 2.15166 400.757 4.05355 2.15166 400.757
104 1 3.18402 4.3776 401.742 3.18402 4.3776 401.742
108 1 5.53916 0.681398 402.237 5.53916 0.681398 402.237
107 1 4.91039 4.38049 399.898 4.91039 4.38049 399.898
106 1 4.67276 2.88521 403.157 4.67276 2.88521 403.157
110 1 7.25406 0.71994 400.362 7.25406 0.71994 400.362
111 1 7.89676 1.41792 402.714 7.89676 1.41792 402.714
109 1 6.38122 2.90263 401.301 6.38122 2.90263 401.301
113 1 8.75106 3.63916 401.81 8.75106 3.63916 401.81
114 1 9.62046 1.41344 400.824 9.62046 1.41344 400.824
116 1 10.477 3.64227 399.966 10.477 3.64227 399.966
118 1 11.9474 2.16456 401.369 11.9474 2.16456 401.369
117 1 11.1055 4.37059 402.304 11.1055 4.37059 402.304
121 1 13.6602 2.21089 399.588 13.6602 2.21089 399.588
120 1 13.4626 0.679631 402.782 13.4626 0.679631 402.782
119 1 12.8199 4.40945 400.429 12.8199 4.40945 400.429
115 1 10.2393 2.14681 403.225 10.2393 2.14681 403.225
122 1 14.3166 2.90096 401.877 14.3166 2.90096 401.877
123 1 15.1858 0.675412 400.891 15.1858 0.675412 400.891
125 1 16.0419 2.90421 400.033 16.0419 2.90421 400.033
126 1 16.6704 3.63247 402.372 16.6704 3.63247 402.372
127 1 17.5121 1.42658 401.436 17.5121 1.42658 401.436
124 1 15.8046 1.4086 403.293 15.8046 1.4086 403.293
130 1 19.2238 1.47296 399.655 19.2238 1.47296 399.655
128 1 18.3842 3.67153 400.497 18.3842 3.67153 400.497
129 1 19.0271 4.3688 402.85 19.0271 4.3688 402.85
131 1 19.8808 2.16271 401.944 19.8808 2.16271 401.944
132 1 20.7495 4.36463 400.958 20.7495 4.36463 400.958
133 1 21.3687 0.67021 403.36 21.3687 0.67021 403.36
134 1 21.6054 2.16594 400.099 21.6054 2.16594 400.099
136 1 23.0751 0.688021 401.503 23.0751 0.688021 401.503
135 1 22.2343 2.89407 402.439 22.2343 2.89407 402.439
139 1 24.7844 0.734037 399.719 24.7844 0.734037 399.719
137 1 23.9472 2.93297 400.563 23.9472 2.93297 400.563
138 1 24.5912 3.63021 402.916 24.5912 3.63021 402.916
141 1 26.3123 3.62654 401.023 26.3123 3.62654 401.023
140 1 25.4432 1.42387 402.009 25.4432 1.42387 402.009
142 1 27.165 1.42771 400.163 27.165 1.42771 400.163
143 1 27.7981 2.15087 402.499 27.7981 2.15087 402.499
144 1 28.6453 4.3697 401.554 28.6453 4.3697 401.554
145 1 29.5143 2.18063 400.617 29.5143 2.18063 400.617
147 1 30.3776 4.4014 399.765 30.3776 4.4014 399.765
146 1 30.138 2.89781 402.998 30.138 2.89781 402.998
150 1 32.7149 0.730487 400.201 32.7149 0.730487 400.201
148 1 30.999 0.695396 402.079 30.999 0.695396 402.079
149 1 31.8461 2.91246 401.142 31.8461 2.91246 401.142
153 1 34.2154 3.64822 401.645 34.2154 3.64822 401.645
151 1 33.3611 1.42658 402.551 33.3611 1.42658 402.551
156 1 35.9379 3.65119 399.798 35.9379 3.65119 399.798
154 1 35.0822 1.42262 400.657 35.0822 1.42262 400.657
157 1 36.5699 4.37896 402.136 36.5699 4.37896 402.136
155 1 35.7046 2.15485 403.058 35.7046 2.15485 403.058
158 1 37.4103 2.17279 401.199 37.4103 2.17279 401.199
159 1 38.2823 4.41743 400.26 38.2823 4.41743 400.26
162 1 39.7803 2.90891 401.706 39.7803 2.90891 401.706
160 1 38.9271 0.687623 402.612 38.9271 0.687623 402.612
163 1 40.6488 0.683222 400.72 40.6488 0.683222 400.72
165 1 41.5046 2.91204 399.861 41.5046 2.91204 399.861
164 1 41.2694 1.41629 403.12 41.2694 1.41629 403.12
168 1 43.8475 3.67919 400.323 43.8475 3.67919 400.323
167 1 42.9757 1.43424 401.263 42.9757 1.43424 401.263
166 1 42.1347 3.64018 402.199 42.1347 3.64018 402.199
169 1 44.4918 4.37647 402.675 44.4918 4.37647 402.675
171 1 45.345 2.17045 401.769 45.345 2.17045 401.769
174 1 47.0688 2.17383 399.924 47.0688 2.17383 399.924
175 1 47.6989 2.90184 402.262 47.6989 2.90184 402.262
172 1 46.2134 4.37246 400.783 46.2134 4.37246 400.783
173 1 46.8338 0.677839 403.184 46.8338 0.677839 403.184
177 1 49.4113 2.94105 400.386 49.4113 2.94105 400.386
176 1 48.5398 0.69604 401.326 48.5398 0.69604 401.326
179 1 50.2502 0.742472 399.543 50.2502 0.742472 399.543
181 1 51.777 3.63422 400.845 51.777 3.63422 400.845
178 1 50.0558 3.63808 402.738 50.0558 3.63808 402.738
180 1 50.9088 1.43212 401.832 50.9088 1.43212 401.832
183 1 52.6322 1.43557 399.986 52.6322 1.43557 399.986
184 1 53.2626 2.16347 402.325 53.2626 2.16347 402.325
186 1 54.9746 2.20274 400.448 54.9746 2.20274 400.448
187 1 55.6194 2.89961 402.8 55.6194 2.89961 402.8
188 1 55.8132 0.00414496 399.605 55.8132 0.00414496 399.605
185 1 54.1033 4.38517 401.388 54.1033 4.38517 401.388
182 1 52.3977 4.36688 403.246 52.3977 4.36688 403.246
189 1 56.4722 0.693667 401.894 56.4722 0.693667 401.894
192 1 58.1952 0.697121 400.047 58.1952 0.697121 400.047
194 1 59.6664 3.64664 401.449 59.6664 3.64664 401.449
193 1 58.8259 1.42493 402.386 58.8259 1.42493 402.386
190 1 57.3402 2.89579 400.907 57.3402 2.89579 400.907
191 1 57.9612 3.62834 403.308 57.9612 3.62834 403.308
195 1 60.5375 1.46419 400.509 60.5375 1.46419 400.509
197 1 61.3758 3.69302 399.666 61.3758 3.69302 399.666
199 1 62.903 2.15711 400.968 62.903 2.15711 400.968
196 1 61.1826 2.16096 402.861 61.1826 2.16096 402.861
198 1 62.0353 4.38245 401.955 62.0353 4.38245 401.955
200 1 63.5244 2.8896 403.369 63.5244 2.8896 403.369
202 1 64.3889 0.686155 402.447 64.3889 0.686155 402.447
201 1 63.7578 4.38586 400.108 63.7578 4.38586 400.108
206 1 66.9381 2.95415 399.725 66.9381 2.95415 399.725
204 1 66.1 0.725337 400.569 66.1 0.725337 400.569
203 1 65.2292 2.90784 401.51 65.2292 2.90784 401.51
205 1 66.7457 1.422 402.921 66.7457 1.422 402.921
207 1 67.5982 3.64343 402.014 67.5982 3.64343 402.014
209 1 69.3201 3.64668 400.167 69.3201 3.64668 400.167
208 1 68.4655 1.41797 401.027 68.4655 1.41797 401.027
211 1 70.7916 2.16828 401.569 70.7916 2.16828 401.569
210 1 69.952 4.37435 402.506 69.952 4.37435 402.506
212 1 71.6624 4.41314 400.627 71.6624 4.41314 400.627
214 1 72.4985 2.21415 399.783 72.4985 2.21415 399.783
217 1 74.8798 2.90746 400.223 74.8798 2.90746 400.223
216 1 74.0281 0.678874 401.084 74.0281 0.678874 401.084
215 1 73.1603 2.90371 402.072 73.1603 2.90371 402.072
213 1 72.3094 0.6826 402.979 72.3094 0.6826 402.979
218 1 75.5159 3.63027 402.558 75.5159 3.63027 402.558
220 1 77.23 3.65977 400.674 77.23 3.65977 400.674
219 1 76.362 1.42152 401.611 76.362 1.42152 401.611
222 1 78.0926 1.45307 399.821 78.0926 1.45307 399.821
223 1 78.7168 2.17428 402.134 78.7168 2.17428 402.134
221 1 77.8567 4.37681 403.054 77.8567 4.37681 403.054
224 1 79.5629 4.39116 401.196 79.5629 4.39116 401.196
225 1 80.4309 2.20903 400.254 80.4309 2.20903 400.254
229 1 82.7991 2.90095 400.707 82.7991 2.90095 400.707
228 1 81.9333 0.699293 401.696 81.9333 0.699293 401.696
226 1 81.0798 2.90522 402.603 81.0798 2.90522 402.603
231 1 83.6541 0.702047 399.848 83.6541 0.702047 399.848
234 1 85.9998 1.46763 400.306 85.9998 1.46763 400.306
233 1 85.1286 3.65067 401.246 85.1286 3.65067 401.246
235 1 86.6472 2.16559 402.657 86.6472 2.16559 402.657
232 1 84.2889 1.42964 402.184 84.2889 1.42964 402.184
230 1 83.4244 3.63313 403.106 83.4244 3.63313 403.106
241 1 89.8555 0.690108 402.241 89.8555 0.690108 402.241
238 1 88.3675 2.16073 400.763 88.3675 2.16073 400.763
240 1 89.2228 4.38951 399.904 89.2228 4.38951 399.904
237 1 87.4998 4.38669 401.751 87.4998 4.38669 401.751
239 1 88.9908 2.89392 403.163 88.9908 2.89392 403.163
242 1 90.6959 2.91129 401.304 90.6959 2.91129 401.304
243 1 91.5671 0.72847 400.363 91.5671 0.72847 400.363
247 1 93.9341 1.4213 400.821 93.9341 1.4213 400.821
246 1 93.0665 3.64731 401.809 93.0665 3.64731 401.809
244 1 92.2136 1.42621 402.715 92.2136 1.42621 402.715
254 1 97.971 2.21572 399.579 97.971 2.21572 399.579
249 1 94.7897 3.65005 399.962 94.7897 3.65005 399.962
253 1 97.7802 0.686931 402.774 97.7802 0.686931 402.774
251 1 96.2617 2.17127 401.363 96.2617 2.17127 401.363
252 1 97.1339 4.4153 400.423 97.1339 4.4153 400.423
250 1 95.4218 4.37808 402.3 95.4218 4.37808 402.3
248 1 94.5569 2.15468 403.221 94.5569 2.15468 403.221
258 1 100.352 2.90668 400.021 100.352 2.90668 400.021
255 1 98.6317 2.90713 401.868 98.6317 2.90713 401.868
259 1 100.984 3.64391 402.363 100.984 3.64391 402.363
260 1 101.824 1.44072 401.434 101.824 1.44072 401.434
256 1 99.5015 0.680435 400.881 99.5015 0.680435 400.881
257 1 100.122 1.41954 403.284 100.122 1.41954 403.284
263 1 103.524 1.48194 399.669 103.524 1.48194 399.669
261 1 102.678 3.6876 400.491 102.678 3.6876 400.491
264 1 104.219 2.16769 401.907 104.219 2.16769 401.907
265 1 105.06 4.36391 400.943 105.06 4.36391 400.943
262 1 103.351 4.37661 402.826 103.351 4.37661 402.826
266 1 105.696 0.675371 403.334 105.696 0.675371 403.334
268 1 -61.5102 3.6238 404.772 -61.5102 3.6238 404.772
271 1 -60.0156 2.13651 406.22 -60.0156 2.13651 406.22
270 1 -60.6576 1.42446 403.822 -60.6576 1.42446 403.822
267 1 -62.3652 1.39956 405.719 -62.3652 1.39956 405.719
272 1 -59.163 4.36186 405.276 -59.163 4.36186 405.276
269 1 -60.8716 4.33956 407.166 -60.8716 4.33956 407.166
277 1 -56.8037 0.664365 405.783 -56.8037 0.664365 405.783
274 1 -58.3059 2.15765 404.331 -58.3059 2.15765 404.331
278 1 -55.9394 2.88054 404.839 -55.9394 2.88054 404.839
275 1 -57.6615 2.87017 406.721 -57.6615 2.87017 406.721
276 1 -57.4442 4.37305 403.409 -57.4442 4.37305 403.409
279 1 -55.3045 3.59925 407.226 -55.3045 3.59925 407.226
280 1 -55.0772 0.669376 403.907 -55.0772 0.669376 403.907
286 1 -51.8664 3.61899 403.449 -51.8664 3.61899 403.449
282 1 -53.582 3.60874 405.342 -53.582 3.60874 405.342
284 1 -52.7215 1.4026 404.407 -52.7215 1.4026 404.407
281 1 -54.4441 1.39099 406.288 -54.4441 1.39099 406.288
285 1 -52.0885 2.12397 406.792 -52.0885 2.12397 406.792
291 1 -48.8761 0.655173 406.351 -48.8761 0.655173 406.351
288 1 -50.3717 2.14144 404.908 -50.3717 2.14144 404.908
292 1 -48.0186 2.87906 405.409 -48.0186 2.87906 405.409
287 1 -51.2302 4.34443 405.847 -51.2302 4.34443 405.847
290 1 -49.5177 4.36264 403.963 -49.5177 4.36264 403.963
294 1 -47.159 0.675466 404.467 -47.159 0.675466 404.467
297 1 -45.6634 3.61202 405.912 -45.6634 3.61202 405.912
296 1 -46.3039 2.89559 403.526 -46.3039 2.89559 403.526
298 1 -44.8049 1.40622 404.965 -44.8049 1.40622 404.965
295 1 -46.5212 1.38994 406.853 -46.5212 1.38994 406.853
300 1 -43.9461 3.62867 404.031 -43.9461 3.62867 404.031
306 1 -40.7336 2.1539 403.583 -40.7336 2.1539 403.583
302 1 -42.4493 2.13838 405.466 -42.4493 2.13838 405.466
304 1 -41.5874 4.36191 404.525 -41.5874 4.36191 404.525
301 1 -43.3065 4.34496 406.412 -43.3065 4.34496 406.412
305 1 -40.9516 0.650139 406.912 -40.9516 0.650139 406.912
307 1 -40.0941 2.87168 405.971 -40.0941 2.87168 405.971
310 1 -38.3767 2.88866 404.09 -38.3767 2.88866 404.09
312 1 -36.88 1.39867 405.527 -36.88 1.39867 405.527
311 1 -37.7375 3.60513 406.472 -37.7375 3.60513 406.472
308 1 -39.235 0.666057 405.025 -39.235 0.666057 405.025
313 1 -36.018 3.62203 404.585 -36.018 3.62203 404.585
315 1 -35.1636 1.41388 403.645 -35.1636 1.41388 403.645
316 1 -34.5249 2.1319 406.032 -34.5249 2.1319 406.032
317 1 -33.6656 4.35353 405.086 -33.6656 4.35353 405.086
314 1 -35.3828 4.3379 406.973 -35.3828 4.3379 406.973
319 1 -32.8069 2.14857 404.152 -32.8069 2.14857 404.152
320 1 -32.1684 2.86521 406.534 -32.1684 2.86521 406.534
324 1 -29.5938 0.673723 403.707 -29.5938 0.673723 403.707
321 1 -31.3106 0.658623 405.589 -31.3106 0.658623 405.589
322 1 -30.4484 2.88191 404.648 -30.4484 2.88191 404.648
323 1 -29.8136 3.59788 407.036 -29.8136 3.59788 407.036
325 1 -28.9556 1.39178 406.095 -28.9556 1.39178 406.095
328 1 -27.2373 1.40833 404.215 -27.2373 1.40833 404.215
326 1 -28.0961 3.61334 405.149 -28.0961 3.61334 405.149
329 1 -26.5991 2.12502 406.597 -26.5991 2.12502 406.597
330 1 -25.7412 4.34581 405.653 -25.7412 4.34581 405.653
331 1 -24.879 2.14158 404.712 -24.879 2.14158 404.712
337 1 -21.6681 0.667839 404.279 -21.6681 0.667839 404.279
334 1 -23.3864 0.651429 406.159 -23.3864 0.651429 406.159
335 1 -22.5269 2.8729 405.214 -22.5269 2.8729 405.214
333 1 -24.0244 4.36081 403.771 -24.0244 4.36081 403.771
338 1 -21.03 1.38455 406.662 -21.03 1.38455 406.662
332 1 -24.2445 2.8576 407.1 -24.2445 2.8576 407.1
340 1 -19.3097 1.40094 404.776 -19.3097 1.40094 404.776
342 1 -18.4555 3.62 403.835 -18.4555 3.62 403.835
339 1 -20.1722 3.60524 405.717 -20.1722 3.60524 405.717
344 1 -16.9569 2.13121 405.276 -16.9569 2.13121 405.276
343 1 -17.8173 4.33761 406.223 -17.8173 4.33761 406.223
341 1 -18.6753 2.1167 407.164 -18.6753 2.1167 407.164
347 1 -15.4638 0.644824 406.728 -15.4638 0.644824 406.728
349 1 -14.6059 2.86591 405.783 -14.6059 2.86591 405.783
346 1 -16.0988 4.35281 404.341 -16.0988 4.35281 404.341
350 1 -13.7473 0.662233 404.846 -13.7473 0.662233 404.846
351 1 -13.1098 1.38068 407.233 -13.1098 1.38068 407.233
353 1 -12.2515 3.60301 406.291 -12.2515 3.60301 406.291
352 1 -12.8918 2.88263 403.903 -12.8918 2.88263 403.903
354 1 -11.3932 1.39892 405.35 -11.3932 1.39892 405.35
356 1 -10.5325 3.62232 404.409 -10.5325 3.62232 404.409
358 1 -9.6765 1.41461 403.469 -9.6765 1.41461 403.469
357 1 -9.89634 4.33715 406.796 -9.89634 4.33715 406.796
363 1 -6.68102 2.86415 406.359 -6.68102 2.86415 406.359
359 1 -9.03783 2.13142 405.856 -9.03783 2.13142 405.856
362 1 -7.31883 2.14759 403.977 -7.31883 2.14759 403.977
360 1 -8.17848 4.3528 404.911 -8.17848 4.3528 404.911
364 1 -5.82304 0.657415 405.414 -5.82304 0.657415 405.414
368 1 -4.10603 0.672798 403.533 -4.10603 0.672798 403.533
366 1 -4.9605 2.88084 404.474 -4.9605 2.88084 404.474
369 1 -3.46842 1.39077 405.921 -3.46842 1.39077 405.921
367 1 -4.3265 3.59674 406.862 -4.3265 3.59674 406.862
370 1 -2.60876 3.61258 404.976 -2.60876 3.61258 404.976
372 1 -1.74999 1.40779 404.042 -1.74999 1.40779 404.042
376 1 0.60782 2.14149 404.54 0.60782 2.14149 404.54
373 1 -1.11249 2.1244 406.425 -1.11249 2.1244 406.425
374 1 -0.254526 4.34547 405.481 -0.254526 4.34547 405.481
379 1 2.09953 0.651604 405.989 2.09953 0.651604 405.989
378 1 1.46262 4.36098 403.6 1.46262 4.36098 403.6
377 1 1.24141 2.85746 406.929 1.24141 2.85746 406.929
383 1 4.45502 1.38538 406.493 4.45502 1.38538 406.493
380 1 2.95917 2.87343 405.044 2.95917 2.87343 405.044
382 1 3.81805 0.668711 404.11 3.81805 0.668711 404.11
384 1 5.31297 3.60651 405.549 5.31297 3.60651 405.549
385 1 6.17528 1.40263 404.608 6.17528 1.40263 404.608
387 1 7.03001 3.62227 403.668 7.03001 3.62227 403.668
388 1 7.66655 4.34027 406.057 7.66655 4.34027 406.057
386 1 6.80849 2.1186 406.997 6.80849 2.1186 406.997
389 1 8.52609 2.13473 405.112 8.52609 2.13473 405.112
391 1 9.38482 4.35759 404.178 9.38482 4.35759 404.178
392 1 10.0216 0.646727 406.561 10.0216 0.646727 406.561
393 1 10.8794 2.86796 405.617 10.8794 2.86796 405.617
394 1 11.7415 0.664174 404.676 11.7415 0.664174 404.676
396 1 12.5961 2.88392 403.736 12.5961 2.88392 403.736
397 1 13.2325 3.60182 406.125 13.2325 3.60182 406.125
395 1 12.3746 1.38007 407.066 12.3746 1.38007 407.066
398 1 14.0919 1.39634 405.18 14.0919 1.39634 405.18
400 1 14.9503 3.61927 404.246 14.9503 3.61927 404.246
401 1 15.5872 4.33578 406.63 15.5872 4.33578 406.63
402 1 16.4448 2.12962 405.685 16.4448 2.12962 405.685
403 1 17.3066 4.35332 404.744 17.3066 4.35332 404.744
405 1 18.1609 2.14566 403.804 18.1609 2.14566 403.804
406 1 18.7976 2.86347 406.193 18.7976 2.86347 406.193
409 1 20.5149 2.88091 404.313 20.5149 2.88091 404.313
410 1 21.1521 3.59735 406.697 21.1521 3.59735 406.697
407 1 19.6566 0.65798 405.248 19.6566 0.65798 405.248
404 1 17.9399 0.64169 407.134 17.9399 0.64169 407.134
412 1 22.8711 3.61482 404.811 22.8711 3.61482 404.811
411 1 22.0093 1.39114 405.752 22.0093 1.39114 405.752
415 1 24.3622 2.12424 406.259 24.3622 2.12424 406.259
414 1 23.7248 1.40704 403.87 23.7248 1.40704 403.87
416 1 25.2219 4.3458 405.312 25.2219 4.3458 405.312
413 1 23.5048 4.33025 407.2 23.5048 4.33025 407.2
418 1 26.0792 2.14049 404.377 26.0792 2.14049 404.377
419 1 26.7137 2.85964 406.766 26.7137 2.85964 406.766
420 1 26.9354 4.35639 403.42 26.9354 4.35639 403.42
421 1 27.5709 0.653878 405.82 27.5709 0.653878 405.82
422 1 28.4286 2.87822 404.882 28.4286 2.87822 404.882
424 1 29.2833 0.671825 403.939 29.2833 0.671825 403.939
426 1 30.7808 3.61544 405.386 30.7808 3.61544 405.386
425 1 29.9234 1.39157 406.328 29.9234 1.39157 406.328
430 1 32.4956 3.63225 403.505 32.4956 3.63225 403.505
428 1 31.6406 1.41191 404.445 31.6406 1.41191 404.445
429 1 32.2768 2.12616 406.833 32.2768 2.12616 406.833
432 1 33.9927 2.14286 404.946 33.9927 2.14286 404.946
431 1 33.1344 4.34841 405.892 33.1344 4.34841 405.892
435 1 35.4895 0.6541 406.394 35.4895 0.6541 406.394
436 1 36.3465 2.87535 405.449 36.3465 2.87535 405.449
434 1 34.8513 4.36565 404.012 34.8513 4.36565 404.012
440 1 38.0614 2.89172 403.566 38.0614 2.89172 403.566
438 1 37.2079 0.671801 404.508 37.2079 0.671801 404.508
439 1 37.8425 1.38702 406.897 37.8425 1.38702 406.897
442 1 39.5582 1.40378 405.009 39.5582 1.40378 405.009
441 1 38.6996 3.60898 405.955 38.6996 3.60898 405.955
444 1 40.4159 3.62688 404.074 40.4159 3.62688 404.074
446 1 41.9111 2.13685 405.513 41.9111 2.13685 405.513
445 1 41.0542 4.34277 406.458 41.0542 4.34277 406.458
450 1 43.6261 2.15319 403.63 43.6261 2.15319 403.63
451 1 44.264 2.8705 406.019 44.264 2.8705 406.019
448 1 42.7723 4.36072 404.571 42.7723 4.36072 404.571
449 1 43.4069 0.648489 406.96 43.4069 0.648489 406.96
452 1 45.1226 0.665234 405.073 45.1226 0.665234 405.073
454 1 45.9803 2.88834 404.138 45.9803 2.88834 404.138
457 1 48.3366 3.62222 404.634 48.3366 3.62222 404.634
455 1 46.6186 3.60424 406.521 46.6186 3.60424 406.521
456 1 47.4755 1.39831 405.576 47.4755 1.39831 405.576
459 1 49.1903 1.41475 403.693 49.1903 1.41475 403.693
458 1 48.9713 4.33737 407.024 48.9713 4.33737 407.024
460 1 49.8283 2.13195 406.082 49.8283 2.13195 406.082
463 1 51.5444 2.14987 404.2 51.5444 2.14987 404.2
461 1 50.6868 4.35417 405.136 50.6868 4.35417 405.136
464 1 52.1828 2.86566 406.584 52.1828 2.86566 406.584
465 1 53.0395 0.659762 405.639 53.0395 0.659762 405.639
468 1 54.754 0.676272 403.755 54.754 0.676272 403.755
466 1 53.9005 2.88371 404.697 53.9005 2.88371 404.697
469 1 55.3923 1.39336 406.144 55.3923 1.39336 406.144
467 1 54.5354 3.59877 407.086 54.5354 3.59877 407.086
470 1 56.2506 3.6156 405.198 56.2506 3.6156 405.198
472 1 57.108 1.41131 404.262 57.108 1.41131 404.262
475 1 59.4642 2.14509 404.758 59.4642 2.14509 404.758
473 1 57.7468 2.12704 406.646 57.7468 2.12704 406.646
474 1 58.6034 4.3486 405.7 58.6034 4.3486 405.7
477 1 60.3175 4.3651 403.816 60.3175 4.3651 403.816
481 1 62.6715 0.672595 404.323 62.6715 0.672595 404.323
478 1 60.9562 0.654689 406.205 60.9562 0.654689 406.205
479 1 61.8143 2.87691 405.259 61.8143 2.87691 405.259
482 1 63.3107 1.38831 406.706 63.3107 1.38831 406.706
476 1 60.0995 2.86011 407.147 60.0995 2.86011 407.147
483 1 64.1671 3.60983 405.761 64.1671 3.60983 405.761
486 1 65.8808 3.62623 403.877 65.8808 3.62623 403.877
488 1 67.3779 2.13797 405.318 67.3779 2.13797 405.318
484 1 65.0277 1.40627 404.818 65.0277 1.40627 404.818
487 1 66.52 4.34329 406.265 66.52 4.34329 406.265
485 1 65.6634 2.12131 407.207 65.6634 2.12131 407.207
490 1 68.235 4.36104 404.382 68.235 4.36104 404.382
493 1 69.7309 2.87074 405.82 69.7309 2.87074 405.82
491 1 68.8747 0.649339 406.766 68.8747 0.649339 406.766
494 1 70.5916 0.667098 404.877 70.5916 0.667098 404.877
492 1 69.0875 2.15044 403.428 69.0875 2.15044 403.428
496 1 71.4441 2.88685 403.935 71.4441 2.88685 403.935
497 1 72.0842 3.60347 406.323 72.0842 3.60347 406.323
500 1 73.7991 3.6199 404.438 73.7991 3.6199 404.438
498 1 72.9428 1.39768 405.375 72.9428 1.39768 405.375
502 1 74.6543 1.40836 403.481 74.6543 1.40836 403.481
501 1 74.4363 4.33853 406.826 74.4363 4.33853 406.826
503 1 75.2925 2.13285 405.88 75.2925 2.13285 405.88
506 1 77.0029 2.15085 403.996 77.0029 2.15085 403.996
507 1 77.6457 2.87025 406.384 77.6457 2.87025 406.384
504 1 76.1492 4.35724 404.94 76.1492 4.35724 404.94
508 1 78.5022 0.666713 405.441 78.5022 0.666713 405.441
510 1 79.3611 2.89064 404.499 79.3611 2.89064 404.499
512 1 80.2152 0.683487 403.557 80.2152 0.683487 403.557
514 1 81.7141 3.62133 404.997 81.7141 3.62133 404.997
516 1 82.5719 1.41661 404.061 82.5719 1.41661 404.061
513 1 80.8566 1.39944 405.944 80.8566 1.39944 405.944
511 1 79.9999 3.60462 406.886 79.9999 3.60462 406.886
517 1 83.2127 2.1324 406.443 83.2127 2.1324 406.443
523 1 86.423 0.659645 406 86.423 0.659645 406
520 1 84.9296 2.14999 404.554 84.9296 2.14999 404.554
518 1 84.0689 4.3536 405.497 84.0689 4.3536 405.497
522 1 85.7822 4.36979 403.612 85.7822 4.36979 403.612
521 1 85.5667 2.8652 406.943 85.5667 2.8652 406.943
526 1 88.1379 0.677298 404.117 88.1379 0.677298 404.117
528 1 89.6349 3.61477 405.554 89.6349 3.61477 405.554
524 1 87.2809 2.8818 405.053 87.2809 2.8818 405.053
529 1 90.4955 1.411 404.612 90.4955 1.411 404.612
527 1 88.7787 1.39339 406.5 88.7787 1.39339 406.5
536 1 94.345 0.655092 406.558 94.345 0.655092 406.558
531 1 91.3486 3.63066 403.67 91.3486 3.63066 403.67
533 1 92.8469 2.14297 405.111 92.8469 2.14297 405.111
532 1 91.9891 4.34848 406.058 91.9891 4.34848 406.058
535 1 93.7042 4.36574 404.175 93.7042 4.36574 404.175
530 1 91.1326 2.12665 407 91.1326 2.12665 407
538 1 96.0619 0.672408 404.67 96.0619 0.672408 404.67
541 1 97.5554 3.6113 406.116 97.5554 3.6113 406.116
540 1 96.9147 2.89176 403.729 96.9147 2.89176 403.729
537 1 95.2012 2.87632 405.612 95.2012 2.87632 405.612
539 1 96.6991 1.38921 407.058 96.6991 1.38921 407.058
546 1 100.772 2.13921 405.666 100.772 2.13921 405.666
544 1 99.2694 3.62951 404.236 99.2694 3.62951 404.236
542 1 98.4132 1.40623 405.17 98.4132 1.40623 405.17
547 1 101.632 4.36294 404.725 101.632 4.36294 404.725
545 1 99.9137 4.34513 406.614 99.9137 4.34513 406.614
553 1 104.841 2.88666 404.28 104.841 2.88666 404.28
550 1 103.126 2.87046 406.167 103.126 2.87046 406.167
554 1 105.481 3.60442 406.665 105.481 3.60442 406.665
549 1 102.491 2.15522 403.778 102.491 2.15522 403.778
551 1 103.984 0.664702 405.22 103.984 0.664702 405.22
548 1 102.269 0.649083 407.111 102.269 0.649083 407.111
560 1 -60.2317 0.627859 409.555 -60.2317 0.627859 409.555
558 1 -61.7277 2.11617 408.11 -61.7277 2.11617 408.11
562 1 -59.3746 2.85098 408.61 -59.3746 2.85098 408.61
559 1 -61.0888 2.83248 410.499 -61.0888 2.83248 410.499
556 1 -62.585 4.32089 409.054 -62.585 4.32089 409.054
273 1 -58.5187 0.647023 407.667 -58.5187 0.647023 407.667
565 1 -57.021 3.58424 409.111 -57.021 3.58424 409.111
568 1 -55.5243 2.09505 410.558 -55.5243 2.09505 410.558
567 1 -56.1637 1.37899 408.169 -56.1637 1.37899 408.169
564 1 -57.8782 1.36169 410.056 -57.8782 1.36169 410.056
563 1 -58.7352 3.56641 411 -58.7352 3.56641 411
573 1 -52.3112 0.622452 410.119 -52.3112 0.622452 410.119
571 1 -53.8079 2.11051 408.673 -53.8079 2.11051 408.673
283 1 -52.9484 4.33055 407.731 -52.9484 4.33055 407.731
569 1 -54.6665 4.31678 409.615 -54.6665 4.31678 409.615
574 1 -51.4521 2.84387 409.178 -51.4521 2.84387 409.178
572 1 -53.1696 2.82844 411.061 -53.1696 2.82844 411.061
576 1 -50.5931 0.63757 408.235 -50.5931 0.63757 408.235
578 1 -49.0967 3.57794 409.681 -49.0967 3.57794 409.681
289 1 -49.7341 2.86011 407.294 -49.7341 2.86011 407.294
580 1 -48.2381 1.37242 408.738 -48.2381 1.37242 408.738
577 1 -49.9557 1.35609 410.622 -49.9557 1.35609 410.622
293 1 -47.3797 3.59491 407.796 -47.3797 3.59491 407.796
299 1 -44.1657 2.12261 407.353 -44.1657 2.12261 407.353
583 1 -45.8827 2.1061 409.239 -45.8827 2.1061 409.239
585 1 -45.0241 4.32819 408.297 -45.0241 4.32819 408.297
582 1 -46.7413 4.31154 410.182 -46.7413 4.31154 410.182
586 1 -44.3861 0.617236 410.683 -44.3861 0.617236 410.683
589 1 -42.6689 0.633713 408.798 -42.6689 0.633713 408.798
591 1 -41.1725 3.57216 410.242 -41.1725 3.57216 410.242
303 1 -41.8108 2.85537 407.855 -41.8108 2.85537 407.855
587 1 -43.5276 2.83911 409.74 -43.5276 2.83911 409.74
592 1 -40.3138 1.36667 409.299 -40.3138 1.36667 409.299
309 1 -38.5966 1.38287 407.413 -38.5966 1.38287 407.413