ITEM: TIMESTEP
0
ITEM: NUMBER OF ATOMS
4630
ITEM: BOX BOUNDS xy xz yz pp pp pp
-6.4146706286666131e+01 1.0716573813486613e+02 0.0000000000000000e+00
0.0000000000000000e+00 4.4274527100805940e+00 0.0000000000000000e+00
3.8000000000000000e+02 5.0000000000000000e+02 0.0000000000000000e+00
ITEM: ATOMS id type x y z xu yu zu
7 1 -59.8406 2.65461 399.209 -59.8406 2.65461 399.209
27 1 -46.2157 1.9536 399.762 -46.2157 1.9536 399.762
36 1 -40.5621 1.21315 399.821 -40.5621 1.21315 399.821
45 1 -34.9109 0.474637 399.883 -34.9109 0.474637 399.883
85 1 -9.04904 0.481293 399.708 -9.04904 0.481293 399.708
94 1 -3.3949 4.16861 399.767 -3.3949 4.16861 399.767
103 1 2.25618 3.43011 399.828 2.25618 3.43011 399.828
112 1 7.90703 2.69184 399.89 7.90703 2.69184 399.89
152 1 33.7697 2.69224 399.708 33.7697 2.69224 399.708
161 1 39.4253 1.95009 399.764 39.4253 1.95009 399.764
170 1 45.0782 1.20978 399.823 45.0782 1.20978 399.823
227 1 82.2535 4.16099 399.759 82.2535 4.16099 399.759
236 1 87.9085 3.42012 399.817 87.9085 3.42012 399.817
245 1 93.5597 2.68064 399.878 93.5597 2.68064 399.878
5 1 -60.7391 0.441746 400.007 -60.7391 0.441746 400.007
2 1 -62.5529 0.459831 401.77 -62.5529 0.459831 401.77
3 1 -61.6646 2.67006 400.887 -61.6646 2.67006 400.887
1 1 -63.4136 2.65058 402.704 107.899 2.65058 402.704
4 1 -61.0225 3.4099 403.204 -61.0225 3.4099 403.204
9 1 -58.346 1.12702 400.469 -58.346 1.12702 400.469
8 1 -59.2245 3.38079 401.422 -59.2245 3.38079 401.422
10 1 -57.7272 1.89629 402.809 -57.7272 1.89629 402.809
6 1 -60.1325 1.18913 402.29 -60.1325 1.18913 402.29
11 1 -56.86 4.11348 401.887 -56.86 4.11348 401.887
12 1 -55.9888 1.93185 400.947 -55.9888 1.93185 400.947
16 1 -53.5922 2.63144 401.411 -53.5922 2.63144 401.411
15 1 -54.4678 0.437796 402.393 -54.4678 0.437796 402.393
14 1 -55.1198 4.162 400.12 -55.1198 4.162 400.12
17 1 -52.7228 0.433066 400.561 -52.7228 0.433066 400.561
13 1 -55.3363 2.64584 403.286 -55.3363 2.64584 403.286
22 1 -49.4425 3.40523 400.165 -49.4425 3.40523 400.165
20 1 -50.3366 1.18236 401.004 -50.3366 1.18236 401.004
19 1 -51.2202 3.37594 401.924 -51.2202 3.37594 401.924
18 1 -52.0782 1.16627 402.871 -52.0782 1.16627 402.871
21 1 -49.704 1.91583 403.359 -49.704 1.91583 403.359
23 1 -48.827 4.13318 402.455 -48.827 4.13318 402.455
26 1 -46.4312 0.443033 402.922 -46.4312 0.443033 402.922
24 1 -47.9664 1.91075 401.517 -47.9664 1.91075 401.517
28 1 -45.5617 2.65805 402.031 -45.5617 2.65805 402.031
25 1 -47.0792 4.15165 400.594 -47.0792 4.15165 400.594
29 1 -44.6838 0.423626 401.05 -44.6838 0.423626 401.05
31 1 -43.815 2.65221 400.2 -43.815 2.65221 400.2
34 1 -41.4328 3.41137 400.649 -41.4328 3.41137 400.649
32 1 -43.1703 3.3889 402.512 -43.1703 3.3889 402.512
33 1 -42.3183 1.17321 401.572 -42.3183 1.17321 401.572
30 1 -44.0503 1.17205 403.42 -44.0503 1.17205 403.42
35 1 -40.7806 4.13231 402.98 -40.7806 4.13231 402.98
40 1 -38.1632 1.91286 400.262 -38.1632 1.91286 400.262
37 1 -39.9124 1.91995 402.09 -39.9124 1.91995 402.09
41 1 -37.52 2.65061 402.573 -37.52 2.65061 402.573
38 1 -39.0339 4.11143 401.11 -39.0339 4.11143 401.11
39 1 -38.4002 0.434181 403.481 -38.4002 0.434181 403.481
43 1 -35.7816 2.67281 400.711 -35.7816 2.67281 400.711
42 1 -36.6676 0.434489 401.634 -36.6676 0.434489 401.634
44 1 -35.1298 3.39419 403.042 -35.1298 3.39419 403.042
46 1 -34.2614 1.18171 402.152 -34.2614 1.18171 402.152
47 1 -33.3827 3.37323 401.172 -33.3827 3.37323 401.172
49 1 -32.5121 1.17466 400.324 -32.5121 1.17466 400.324
52 1 -30.1305 1.93479 400.773 -30.1305 1.93479 400.773
50 1 -31.869 1.91257 402.635 -31.869 1.91257 402.635
51 1 -31.0165 4.12391 401.697 -31.0165 4.12391 401.697
53 1 -29.4787 2.65625 403.105 -29.4787 2.65625 403.105
54 1 -29.2598 4.16407 399.946 -29.2598 4.16407 399.946
48 1 -32.7492 4.12366 403.543 -32.7492 4.12366 403.543
58 1 -26.861 0.436676 400.386 -26.861 0.436676 400.386
59 1 -26.2178 1.17463 402.698 -26.2178 1.17463 402.698
56 1 -27.7316 2.63525 401.234 -27.7316 2.63525 401.234
55 1 -28.6103 0.443753 402.215 -28.6103 0.443753 402.215
60 1 -25.3653 3.38596 401.759 -25.3653 3.38596 401.759
57 1 -27.0981 3.38575 403.605 -27.0981 3.38575 403.605
61 1 -24.4795 1.19682 400.836 -24.4795 1.19682 400.836
63 1 -23.6088 3.42611 400.008 -23.6088 3.42611 400.008
62 1 -23.8275 1.91827 403.167 -23.8275 1.91827 403.167
64 1 -22.9591 4.1332 402.277 -22.9591 4.1332 402.277
65 1 -22.0806 1.89716 401.297 -22.0806 1.89716 401.297
66 1 -21.4468 2.64766 403.668 -21.4468 2.64766 403.668
70 1 -18.8282 0.458372 400.897 -18.8282 0.458372 400.897
68 1 -20.5664 0.436484 402.76 -20.5664 0.436484 402.76
69 1 -19.7143 2.64758 401.821 -19.7143 2.64758 401.821
67 1 -21.2099 4.12604 400.449 -21.2099 4.12604 400.449
72 1 -17.9587 2.68737 400.069 -17.9587 2.68737 400.069
71 1 -18.1754 1.18004 403.228 -18.1754 1.18004 403.228
75 1 -15.5604 3.3879 400.508 -15.5604 3.3879 400.508
74 1 -16.4287 1.15918 401.357 -16.4287 1.15918 401.357
73 1 -17.308 3.39475 402.338 -17.308 3.39475 402.338
76 1 -14.9141 4.1225 402.817 -14.9141 4.1225 402.817
77 1 -14.0552 1.90417 401.869 -14.0552 1.90417 401.869
348 1 -15.7922 1.90752 403.725 -15.7922 1.90752 403.725
80 1 -12.2766 1.93306 400.111 -12.2766 1.93306 400.111
81 1 -11.661 2.66147 402.4 -11.661 2.66147 402.4
78 1 -13.172 4.1376 400.95 -13.172 4.1376 400.95
79 1 -12.5383 0.444463 403.304 -12.5383 0.444463 403.304
83 1 -9.91279 2.67935 400.54 -9.91279 2.67935 400.54
82 1 -10.8004 0.438554 401.463 -10.8004 0.438554 401.463
87 1 -7.51696 3.379 400.995 -7.51696 3.379 400.995
84 1 -9.26445 3.3988 402.867 -9.26445 3.3988 402.867
86 1 -8.3949 1.18614 401.977 -8.3949 1.18614 401.977
89 1 -6.64814 1.18011 400.146 -6.64814 1.18011 400.146
90 1 -6.00313 1.91704 402.457 -6.00313 1.91704 402.457
88 1 -6.88309 4.12779 403.366 -6.88309 4.12779 403.366
92 1 -4.26573 1.93937 400.594 -4.26573 1.93937 400.594
93 1 -3.61318 2.66049 402.926 -3.61318 2.66049 402.926
91 1 -5.15114 4.12871 401.518 -5.15114 4.12871 401.518
96 1 -1.86661 2.63948 401.055 -1.86661 2.63948 401.055
95 1 -2.74503 0.448061 402.036 -2.74503 0.448061 402.036
98 1 -0.995947 0.440894 400.207 -0.995947 0.440894 400.207
100 1 0.499716 3.39 401.579 0.499716 3.39 401.579
99 1 -0.352624 1.1787 402.518 -0.352624 1.1787 402.518
97 1 -1.2327 3.38979 403.426 -1.2327 3.38979 403.426
101 1 1.38562 1.20084 400.656 1.38562 1.20084 400.656
102 1 2.03761 1.92222 402.987 2.03761 1.92222 402.987
105 1 3.78447 1.90118 401.117 3.78447 1.90118 401.117
104 1 2.90588 4.13715 402.097 2.90588 4.13715 402.097
108 1 5.29828 0.440439 402.58 5.29828 0.440439 402.58
107 1 4.65504 4.13005 400.269 4.65504 4.13005 400.269
106 1 4.41817 2.65158 403.488 4.41817 2.65158 403.488
110 1 7.03652 0.462586 400.718 7.03652 0.462586 400.718
111 1 7.68853 1.18393 403.049 7.68853 1.18393 403.049
109 1 6.15067 2.65175 401.642 6.15067 2.65175 401.642
113 1 8.55679 3.39884 402.159 8.55679 3.39884 402.159
114 1 9.43534 1.16285 401.179 9.43534 1.16285 401.179
116 1 10.3059 3.39169 400.331 10.3059 3.39169 400.331
118 1 11.8016 1.91328 401.703 11.8016 1.91328 401.703
117 1 10.9492 4.12948 402.642 10.9492 4.12948 402.642
121 1 13.5578 1.95328 399.952 13.5578 1.95328 399.952
120 1 13.3395 0.445379 403.111 13.3395 0.445379 403.111
119 1 12.6874 4.15152 400.78 12.6874 4.15152 400.78
115 1 10.0691 1.91321 403.55 10.0691 1.91321 403.55
122 1 14.2077 2.66023 402.221 14.2077 2.66023 402.221
123 1 15.0862 0.424174 401.241 15.0862 0.424174 401.241
125 1 15.9567 2.65298 400.392 15.9567 2.65298 400.392
126 1 16.6003 3.39066 402.704 16.6003 3.39066 402.704
127 1 17.4526 1.17438 401.765 17.4526 1.17438 401.765
124 1 15.7202 1.17448 403.611 15.7202 1.17448 403.611
130 1 19.2086 1.21426 400.013 19.2086 1.21426 400.013
128 1 18.3383 3.41251 400.841 18.3383 3.41251 400.841
129 1 18.9907 4.13379 403.172 18.9907 4.13379 403.172
131 1 19.859 1.92109 402.282 19.859 1.92109 402.282
132 1 20.7372 4.11233 401.301 20.7372 4.11233 401.301
133 1 21.3717 0.435112 403.672 21.3717 0.435112 403.672
134 1 21.6077 1.91365 400.453 21.6077 1.91365 400.453
136 1 23.1038 0.43457 401.825 23.1038 0.43457 401.825
135 1 22.2519 2.65118 402.764 22.2519 2.65118 402.764
139 1 24.8589 0.473976 400.072 24.8589 0.473976 400.072
137 1 23.9897 2.67255 400.901 23.9897 2.67255 400.901
138 1 24.6431 3.39404 403.231 24.6431 3.39404 403.231
141 1 26.3893 3.37269 401.36 26.3893 3.37269 401.36
140 1 25.5104 1.18107 402.341 25.5104 1.18107 402.341
142 1 27.2576 1.17383 400.511 27.2576 1.17383 400.511
143 1 27.9047 1.908 402.818 27.9047 1.908 402.818
144 1 28.7633 4.11676 401.87 28.7633 4.11676 401.87
145 1 29.6464 1.92241 400.951 29.6464 1.92241 400.951
147 1 30.5416 4.14517 400.112 30.5416 4.14517 400.112
146 1 30.2811 2.65658 403.304 30.2811 2.65658 403.304
150 1 32.906 0.46297 400.539 32.906 0.46297 400.539
148 1 31.1582 0.445809 402.401 31.1582 0.445809 402.401
149 1 32.0186 2.64998 401.463 32.0186 2.64998 401.463
153 1 34.4247 3.39688 401.976 34.4247 3.39688 401.976
151 1 33.5553 1.18237 402.867 33.5553 1.18237 402.867
156 1 36.1711 3.39036 400.145 36.1711 3.39036 400.145
154 1 35.3023 1.16194 400.994 35.3023 1.16194 400.994
157 1 36.8172 4.12691 402.455 36.8172 4.12691 402.455
155 1 35.9374 1.91051 403.364 35.9374 1.91051 403.364
158 1 37.669 1.9107 401.515 37.669 1.9107 401.515
159 1 38.5543 4.14844 400.592 38.5543 4.14844 400.592
162 1 40.076 2.65689 402.032 40.076 2.65689 402.032
160 1 39.2079 0.442165 402.922 39.2079 0.442165 402.922
163 1 40.9541 0.420474 401.051 40.9541 0.420474 401.051
165 1 41.8248 2.64921 400.203 41.8248 2.64921 400.203
164 1 41.5892 1.17066 403.421 41.5892 1.17066 403.421
168 1 44.2074 3.40808 400.651 44.2074 3.40808 400.651
167 1 43.3214 1.17014 401.574 43.3214 1.17014 401.574
166 1 42.4693 3.38673 402.513 42.4693 3.38673 402.513
169 1 44.8603 4.12965 402.981 44.8603 4.12965 402.981
171 1 45.7286 1.91685 402.091 45.7286 1.91685 402.091
174 1 47.4776 1.90927 400.262 47.4776 1.90927 400.262
175 1 48.122 2.64696 402.573 48.122 2.64696 402.573
172 1 46.607 4.10796 401.111 46.607 4.10796 401.111
173 1 47.2419 0.430912 403.481 47.2419 0.430912 403.481
177 1 49.8602 2.66841 400.71 49.8602 2.66841 400.71
176 1 48.9743 0.430436 401.634 48.9743 0.430436 401.634
179 1 50.7312 0.470145 399.883 50.7312 0.470145 399.883
181 1 52.2599 3.36845 401.17 52.2599 3.36845 401.17
178 1 50.5131 3.39009 403.041 50.5131 3.39009 403.041
180 1 51.3815 1.17731 402.151 51.3815 1.17731 402.151
183 1 53.1306 1.16978 400.322 53.1306 1.16978 400.322
184 1 53.7749 1.90759 402.633 53.7749 1.90759 402.633
186 1 55.5131 1.92911 400.77 55.5131 1.92911 400.77
187 1 56.166 2.65086 403.101 56.166 2.65086 403.101
188 1 56.3841 4.15831 399.943 56.3841 4.15831 399.943
185 1 54.6272 4.11854 401.694 54.6272 4.11854 401.694
182 1 52.8947 4.11897 403.541 52.8947 4.11897 403.541
189 1 57.0343 0.438101 402.211 57.0343 0.438101 402.211
192 1 58.7835 0.430597 400.382 58.7835 0.430597 400.382
194 1 60.2801 3.37947 401.754 60.2801 3.37947 401.754
193 1 59.4277 1.16849 402.693 59.4277 1.16849 402.693
190 1 57.9128 2.62925 401.231 57.9128 2.62925 401.231
191 1 58.5475 3.37987 403.601 58.5475 3.37987 403.601
195 1 61.166 1.19007 400.831 61.166 1.19007 400.831
197 1 62.037 3.41928 400.003 62.037 3.41928 400.003
199 1 63.5657 1.89028 401.291 63.5657 1.89028 401.291
196 1 61.8189 1.91186 403.161 61.8189 1.91186 403.161
198 1 62.6872 4.12657 402.271 62.6872 4.12657 402.271
200 1 64.2004 2.64096 403.661 64.2004 2.64096 403.661
202 1 65.0806 0.429577 402.753 65.0806 0.429577 402.753
201 1 64.4364 4.11908 400.443 64.4364 4.11908 400.443
206 1 67.6898 2.68039 400.063 67.6898 2.68039 400.063
204 1 66.8188 0.451162 400.891 66.8188 0.451162 400.891
203 1 65.933 2.64057 401.814 65.933 2.64057 401.814
205 1 67.4717 1.17296 403.221 67.4717 1.17296 403.221
207 1 68.3401 3.38765 402.332 68.3401 3.38765 402.332
209 1 70.0892 3.38011 400.503 70.0892 3.38011 400.503
208 1 69.2185 1.1513 401.351 69.2185 1.1513 401.351
211 1 71.5857 1.90135 401.874 71.5857 1.90135 401.874
210 1 70.7337 4.11802 402.813 70.7337 4.11802 402.813
212 1 72.4718 4.13934 400.951 72.4718 4.13934 400.951
214 1 73.3415 1.94084 400.122 73.3415 1.94084 400.122
217 1 75.7404 2.64117 400.561 75.7404 2.64117 400.561
216 1 74.872 0.412514 401.409 74.872 0.412514 401.409
215 1 73.9928 2.64839 402.39 73.9928 2.64839 402.39
213 1 73.1254 0.433899 403.281 73.1254 0.433899 403.281
218 1 76.3875 3.37582 402.868 76.3875 3.37582 402.868
220 1 78.1295 3.39041 401.001 78.1295 3.39041 401.001
219 1 77.2463 1.15719 401.92 77.2463 1.15719 401.92
222 1 79.0252 1.18583 400.163 79.0252 1.18583 400.163
223 1 79.6413 1.91427 402.451 79.6413 1.91427 402.451
221 1 78.764 4.12497 403.355 78.764 4.12497 403.355
224 1 80.5019 4.1185 401.514 80.5019 4.1185 401.514
225 1 81.3895 1.93164 400.59 81.3895 1.93164 400.59
229 1 83.7858 2.63111 401.046 83.7858 2.63111 401.046
228 1 82.908 0.438501 402.027 82.908 0.438501 402.027
226 1 82.0384 2.65138 402.918 82.0384 2.65138 402.918
231 1 84.6547 0.432156 400.197 84.6547 0.432156 400.197
234 1 87.0376 1.19095 400.644 87.0376 1.19095 400.644
233 1 86.1522 3.38051 401.568 86.1522 3.38051 401.568
235 1 87.6906 1.9123 402.975 87.6906 1.9123 402.975
232 1 85.3003 1.16911 402.507 85.3003 1.16911 402.507
230 1 84.4204 3.3801 403.416 84.4204 3.3801 403.416
241 1 90.9513 0.429904 402.568 90.9513 0.429904 402.568
238 1 89.437 1.89078 401.105 89.437 1.89078 401.105
240 1 90.3076 4.11954 400.257 90.3076 4.11954 400.257
237 1 88.5587 4.12708 402.085 88.5587 4.12708 402.085
239 1 90.0714 2.64131 403.475 90.0714 2.64131 403.475
242 1 91.8035 2.6409 401.629 91.8035 2.6409 401.629
243 1 92.6892 0.451485 400.705 92.6892 0.451485 400.705
247 1 95.0878 1.15113 401.166 95.0878 1.15113 401.166
246 1 94.2096 3.38753 402.147 94.2096 3.38753 402.147
244 1 93.3417 1.17301 403.037 93.3417 1.17301 403.037
254 1 99.2077 1.93885 399.94 99.2077 1.93885 399.94
249 1 95.9584 3.37975 400.318 95.9584 3.37975 400.318
253 1 98.992 0.433261 403.1 98.992 0.433261 403.1
251 1 97.4532 1.90068 401.692 97.4532 1.90068 401.692
252 1 98.339 4.138 400.768 98.339 4.138 400.768
250 1 96.6017 4.11766 402.63 96.6017 4.11766 402.63
248 1 95.7221 1.90208 403.538 95.7221 1.90208 403.538
258 1 101.605 2.63429 400.381 101.605 2.63429 400.381
255 1 99.8585 2.64645 402.21 99.8585 2.64645 402.21
259 1 102.247 3.38198 402.699 102.247 3.38198 402.699
260 1 103.094 1.16642 401.772 103.094 1.16642 401.772
256 1 100.737 0.408428 401.229 100.737 0.408428 401.229
257 1 101.371 1.16676 403.605 101.371 1.16676 403.605
263 1 104.809 1.19269 400.025 104.809 1.19269 400.025
261 1 103.965 3.40363 400.843 103.965 3.40363 400.843
264 1 105.531 1.91405 402.242 105.531 1.91405 402.242
265 1 106.381 4.11008 401.291 106.381 4.11008 401.291
262 1 104.651 4.12865 403.152 104.651 4.12865 403.152
266 1 107.038 0.428154 403.648 107.038 0.428154 403.648
268 1 -62.7575 3.38963 405.071 -62.7575 3.38963 405.071
271 1 -61.2423 1.91499 406.51 -61.2423 1.91499 406.51
270 1 -61.8907 1.18531 404.132 -61.8907 1.18531 404.132
267 1 -63.6258 1.17206 406.011 -63.6258 1.17206 406.011
272 1 -60.3742 4.1343 405.578 -60.3742 4.1343 405.578
269 1 -62.1124 4.12386 407.446 -62.1124 4.12386 407.446
277 1 -57.9771 0.44063 406.086 -57.9771 0.44063 406.086
274 1 -59.4995 1.92268 404.646 -59.4995 1.92268 404.646
278 1 -57.0956 2.64937 405.155 -57.0956 2.64937 405.155
275 1 -58.8519 2.65358 407.012 -58.8519 2.65358 407.012
276 1 -58.6175 4.13069 403.737 -58.6175 4.13069 403.737
279 1 -56.4579 3.38608 407.517 -56.4579 3.38608 407.517
280 1 -56.2183 0.431517 404.231 -56.2183 0.431517 404.231
286 1 -52.9565 3.37739 403.781 -52.9565 3.37739 403.781
282 1 -54.7034 3.38196 405.655 -54.7034 3.38196 405.655
284 1 -53.8272 1.16957 404.732 -53.8272 1.16957 404.732
281 1 -55.5815 1.17068 406.59 -55.5815 1.17068 406.59
285 1 -53.1901 1.90667 407.092 -53.1901 1.90667 407.092
291 1 -49.9283 0.433835 406.658 -49.9283 0.433835 406.658
288 1 -51.4423 1.90955 405.228 -51.4423 1.90955 405.228
292 1 -49.056 2.6514 405.725 -49.056 2.6514 405.725
287 1 -52.3165 4.11943 406.156 -52.3165 4.11943 406.156
290 1 -50.5741 4.12285 404.29 -50.5741 4.12285 404.29
294 1 -48.1813 0.44162 404.796 -48.1813 0.44162 404.796
297 1 -46.6667 3.38848 406.227 -46.6667 3.38848 406.227
296 1 -47.3123 2.65427 403.863 -47.3123 2.65427 403.863
298 1 -45.793 1.17619 405.291 -45.793 1.17619 405.291
295 1 -47.5389 1.17332 407.159 -47.5389 1.17332 407.159
300 1 -44.919 3.39187 404.368 -44.919 3.39187 404.368
306 1 -41.66 1.91397 403.924 -41.66 1.91397 403.924
302 1 -43.4031 1.91167 405.789 -43.4031 1.91167 405.789
304 1 -42.5265 4.12883 404.858 -42.5265 4.12883 404.858
301 1 -44.2749 4.12555 406.725 -44.2749 4.12555 406.725
305 1 -41.8854 0.43449 407.222 -41.8854 0.43449 407.222
307 1 -41.014 2.64918 406.29 -41.014 2.64918 406.29
310 1 -39.2684 2.65385 404.429 -39.2684 2.65385 404.429
312 1 -37.752 1.17385 405.85 -37.752 1.17385 405.85
311 1 -38.6232 3.38724 406.787 -38.6232 3.38724 406.787
308 1 -40.1407 0.437399 405.352 -40.1407 0.437399 405.352
313 1 -36.876 3.39111 404.92 -36.876 3.39111 404.92
315 1 -36.0094 1.17607 403.985 -36.0094 1.17607 403.985
316 1 -35.3631 1.91153 406.351 -35.3631 1.91153 406.351
317 1 -34.49 4.12712 405.414 -34.49 4.12712 405.414
314 1 -36.2342 4.12417 407.284 -36.2342 4.12417 407.284
319 1 -33.6176 1.91598 404.491 -33.6176 1.91598 404.491
320 1 -32.9722 2.64958 406.85 -32.9722 2.64958 406.85
324 1 -30.3583 0.438175 404.048 -30.3583 0.438175 404.048
321 1 -32.101 0.436106 405.912 -32.101 0.436106 405.912
322 1 -31.225 2.65328 404.982 -31.225 2.65328 404.982
323 1 -30.5831 3.38648 407.347 -30.5831 3.38648 407.347
325 1 -29.7119 1.17377 406.414 -29.7119 1.17377 406.414
328 1 -27.9664 1.17811 404.553 -27.9664 1.17811 404.553
326 1 -28.8388 3.3893 405.477 -28.8388 3.3893 405.477
329 1 -27.3209 1.9118 406.912 -27.3209 1.9118 406.912
330 1 -26.4497 4.12573 405.975 -26.4497 4.12573 405.975
331 1 -25.5737 1.9154 405.045 -25.5737 1.9154 405.045
337 1 -22.315 0.440124 404.616 -22.315 0.440124 404.616
334 1 -24.0606 0.435885 406.476 -24.0606 0.435885 406.476
335 1 -23.1874 2.65135 405.539 -23.1874 2.65135 405.539
333 1 -24.7071 4.12771 404.11 -24.7071 4.12771 404.11
338 1 -21.6695 1.17376 406.974 -21.6695 1.17376 406.974
332 1 -24.9318 2.64863 407.409 -24.9318 2.64863 407.409
340 1 -19.922 1.17725 405.106 -19.922 1.17725 405.106
342 1 -19.0556 3.38943 404.172 -19.0556 3.38943 404.172
339 1 -20.7983 3.38761 406.037 -20.7983 3.38761 406.037
344 1 -17.5351 1.91233 405.599 -17.5351 1.91233 405.599
343 1 -18.4091 4.1246 406.538 -18.4091 4.1246 406.538
341 1 -19.2802 1.91017 407.471 -19.2802 1.91017 407.471
347 1 -16.0206 0.435579 407.038 -16.0206 0.435579 407.038
349 1 -15.1491 2.64947 406.1 -15.1491 2.64947 406.1
346 1 -16.6632 4.12803 404.675 -16.6632 4.12803 404.675
350 1 -14.2763 0.439278 405.173 -14.2763 0.439278 405.173
351 1 -13.6322 1.17513 407.537 -13.6322 1.17513 407.537
353 1 -12.7607 3.39069 406.603 -12.7607 3.39069 406.603
352 1 -13.4081 2.65203 404.235 -13.4081 2.65203 404.235
354 1 -11.889 1.18056 405.67 -11.889 1.18056 405.67
356 1 -11.0145 3.39796 404.741 -11.0145 3.39796 404.741
358 1 -10.1456 1.18281 403.808 -10.1456 1.18281 403.808
357 1 -10.371 4.12982 407.104 -10.371 4.12982 407.104
363 1 -7.10707 2.65424 406.671 -7.10707 2.65424 406.671
359 1 -9.49914 1.91736 406.172 -9.49914 1.91736 406.172
362 1 -7.75175 1.92036 404.314 -7.75175 1.92036 404.314
360 1 -8.62561 4.13234 405.236 -8.62561 4.13234 405.236
364 1 -6.23537 0.440223 405.734 -6.23537 0.440223 405.734
368 1 -4.49249 0.442244 403.869 -4.49249 0.442244 403.869
366 1 -5.35898 2.65723 404.804 -5.35898 2.65723 404.804
369 1 -3.84612 1.17762 406.235 -3.84612 1.17762 406.235
367 1 -4.71741 3.39049 407.168 -4.71741 3.39049 407.168
370 1 -2.973 3.39318 405.298 -2.973 3.39318 405.298
372 1 -2.10084 1.18209 404.374 -2.10084 1.18209 404.374
376 1 0.291636 1.91927 404.865 0.291636 1.91927 404.865
373 1 -1.45524 1.91558 406.733 -1.45524 1.91558 406.733
374 1 -0.584182 4.12955 405.796 -0.584182 4.12955 405.796
379 1 1.80474 0.439664 406.297 1.80474 0.439664 406.297
378 1 1.15814 4.13162 403.931 1.15814 4.13162 403.931
377 1 0.933756 2.65239 407.23 0.933756 2.65239 407.23
383 1 4.19563 1.17757 406.795 4.19563 1.17757 406.795
380 1 2.67772 2.65517 405.36 2.67772 2.65517 405.36
382 1 3.54995 0.443964 404.436 3.54995 0.443964 404.436
384 1 5.06667 3.39146 405.858 5.06667 3.39146 405.858
385 1 5.94252 1.1811 404.927 5.94252 1.1811 404.927
387 1 6.80905 3.39339 403.993 6.80905 3.39339 403.993
388 1 7.45569 4.12894 406.359 7.45569 4.12894 406.359
386 1 6.58471 1.91428 407.292 6.58471 1.91428 407.292
389 1 8.32869 1.91692 405.422 8.32869 1.91692 405.422
391 1 9.20092 4.1331 404.498 9.20092 4.1331 404.498
392 1 9.84668 0.439275 406.857 9.84668 0.439275 406.857
393 1 10.7177 2.6531 405.919 10.7177 2.6531 405.919
394 1 11.5936 0.442676 404.989 11.5936 0.442676 404.989
396 1 12.4601 2.6549 404.054 12.4601 2.6549 404.054
397 1 13.1069 3.39043 406.42 13.1069 3.39043 406.42
395 1 12.2359 1.17585 407.353 12.2359 1.17585 407.353
398 1 13.9799 1.17834 405.483 13.9799 1.17834 405.483
400 1 14.8521 3.39445 404.56 14.8521 3.39445 404.56
401 1 15.498 4.12803 406.918 15.498 4.12803 406.918
402 1 16.369 1.91433 405.981 16.369 1.91433 405.981
403 1 17.2449 4.13127 405.05 17.2449 4.13127 405.05
405 1 18.1114 1.91596 404.116 18.1114 1.91596 404.116
406 1 18.7584 2.65142 406.481 18.7584 2.65142 406.481
409 1 20.5036 2.65525 404.62 20.5036 2.65525 404.62
410 1 21.1498 3.38869 406.979 21.1498 3.38869 406.979
407 1 19.6314 0.439229 405.544 19.6314 0.439229 405.544
404 1 17.8874 0.436916 407.414 17.8874 0.436916 407.414
412 1 22.8969 3.39173 405.11 22.8969 3.39173 405.11
411 1 22.0208 1.17486 406.041 22.0208 1.17486 406.041
415 1 24.4103 1.91116 406.541 24.4103 1.91116 406.541
414 1 23.7631 1.17622 404.175 23.7631 1.17622 404.175
416 1 25.2842 4.12609 405.602 25.2842 4.12609 405.602
413 1 23.5393 4.12442 407.474 23.5393 4.12442 407.474
418 1 26.156 1.91409 404.678 26.156 1.91409 404.678
419 1 26.7993 2.64882 407.04 26.7993 2.64882 407.04
420 1 27.0268 4.12074 403.727 27.0268 4.12074 403.727
421 1 27.6706 0.43498 406.102 27.6706 0.43498 406.102
422 1 28.5433 2.65198 405.174 28.5433 2.65198 405.174
424 1 29.4113 0.436972 404.236 29.4113 0.436972 404.236
426 1 30.9311 3.39245 405.67 30.9311 3.39245 405.67
425 1 30.0595 1.17538 406.603 30.0595 1.17538 406.603
430 1 32.6743 3.39412 403.807 32.6743 3.39412 403.807
428 1 31.8056 1.18211 404.741 31.8056 1.18211 404.741
429 1 32.4499 1.9137 407.103 32.4499 1.9137 407.103
432 1 34.1951 1.91567 405.235 34.1951 1.91567 405.235
431 1 33.3216 4.12842 406.171 33.3216 4.12842 406.171
435 1 35.7144 0.437026 406.668 35.7144 0.437026 406.668
436 1 36.586 2.65018 405.731 36.586 2.65018 405.731
434 1 35.0688 4.13087 404.312 35.0688 4.13087 404.312
440 1 38.3287 2.65164 403.866 38.3287 2.65164 403.866
438 1 37.4623 0.439475 404.801 37.4623 0.439475 404.801
439 1 38.1048 1.17246 407.164 38.1048 1.17246 407.164
442 1 39.8491 1.17465 405.294 39.8491 1.17465 405.294
441 1 38.976 3.38679 406.231 38.976 3.38679 406.231
444 1 40.7212 3.39075 404.37 40.7212 3.39075 404.37
446 1 42.2387 1.91027 405.79 42.2387 1.91027 405.79
445 1 41.3677 4.12401 406.728 41.3677 4.12401 406.728
450 1 43.9809 1.91183 403.925 43.9809 1.91183 403.925
451 1 44.6285 2.64719 406.29 44.6285 2.64719 406.29
448 1 43.1145 4.12721 404.859 43.1145 4.12721 404.859
449 1 43.7575 0.432675 407.223 43.7575 0.432675 407.223
452 1 45.5014 0.435038 405.353 45.5014 0.435038 405.353
454 1 46.3737 2.65106 404.429 46.3737 2.65106 404.429
457 1 48.7671 3.38767 404.919 48.7671 3.38767 404.919
455 1 47.0202 3.38453 406.787 47.0202 3.38453 406.787
456 1 47.8913 1.17076 405.849 47.8913 1.17076 405.849
459 1 49.6336 1.17227 403.984 49.6336 1.17227 403.984
458 1 49.4102 4.12076 407.283 49.4102 4.12076 407.283
460 1 50.2811 1.9078 406.35 50.2811 1.9078 406.35
463 1 52.0264 1.91165 404.489 52.0264 1.91165 404.489
461 1 51.1542 4.12309 405.412 51.1542 4.12309 405.412
464 1 52.673 2.64527 406.847 52.673 2.64527 406.847
465 1 53.544 0.431505 405.909 53.544 0.431505 405.909
468 1 55.2865 0.43302 404.044 55.2865 0.43302 404.044
466 1 54.4199 2.64841 404.979 54.4199 2.64841 404.979
469 1 55.9339 1.16868 406.41 55.9339 1.16868 406.41
467 1 55.0629 3.38164 407.343 55.0629 3.38164 407.343
470 1 56.807 3.38397 405.472 56.807 3.38397 405.472
472 1 57.6793 1.17254 404.549 57.6793 1.17254 404.549
475 1 60.0728 1.90941 405.039 60.0728 1.90941 405.039
473 1 58.3258 1.90627 406.907 58.3258 1.90627 406.907
474 1 59.1969 4.11996 405.97 59.1969 4.11996 405.97
477 1 60.9393 4.12147 404.105 60.9393 4.12147 404.105
481 1 63.3321 0.433624 404.609 63.3321 0.433624 404.609
478 1 61.5868 0.429777 406.47 61.5868 0.429777 406.47
479 1 62.4599 2.64506 405.533 62.4599 2.64506 405.533
482 1 63.9787 1.16744 406.967 63.9787 1.16744 406.967
476 1 60.7158 2.64274 407.403 60.7158 2.64274 407.403
483 1 64.8498 3.38112 406.03 64.8498 3.38112 406.03
486 1 66.5923 3.38261 404.165 66.5923 3.38261 404.165
488 1 68.1128 1.9062 405.593 68.1128 1.9062 405.593
484 1 65.7257 1.17055 405.099 65.7257 1.17055 405.099
487 1 67.2397 4.11841 406.53 67.2397 4.11841 406.53
485 1 66.3687 1.90394 407.463 66.3687 1.90394 407.463
490 1 68.9852 4.1222 404.669 68.9852 4.1222 404.669
493 1 70.5027 2.64215 406.09 70.5027 2.64215 406.09
491 1 69.6317 0.428549 407.027 69.6317 0.428549 407.027
494 1 71.3789 0.431565 405.159 71.3789 0.431565 405.159
492 1 69.8534 1.90199 403.721 69.8534 1.90199 403.721
496 1 72.2453 2.6435 404.224 72.2453 2.6435 404.224
497 1 72.8927 3.37889 406.59 72.8927 3.37889 406.59
500 1 74.6385 3.38187 404.727 74.6385 3.38187 404.727
498 1 73.7666 1.16639 405.651 73.7666 1.16639 405.651
502 1 75.5094 1.16108 403.776 75.5094 1.16108 403.776
501 1 75.282 4.11707 407.089 75.282 4.11707 407.089
503 1 76.1533 1.90325 406.151 76.1533 1.90325 406.151
506 1 77.8942 1.9053 404.286 77.8942 1.9053 404.286
507 1 78.5424 2.64424 406.653 78.5424 2.64424 406.653
504 1 77.0261 4.12027 405.224 77.0261 4.12027 405.224
508 1 79.4141 0.43388 405.721 79.4141 0.43388 405.721
510 1 80.2885 2.65103 404.791 80.2885 2.65103 404.791
512 1 81.1573 0.435619 403.858 81.1573 0.435619 403.858
514 1 82.678 3.38519 405.286 82.678 3.38519 405.286
516 1 83.5518 1.17295 404.364 83.5518 1.17295 404.364
513 1 81.8046 1.17049 406.222 81.8046 1.17049 406.222
511 1 80.9328 3.38321 407.154 80.9328 3.38321 407.154
517 1 84.1973 1.90721 406.72 84.1973 1.90721 406.72
523 1 87.4587 0.430174 406.284 87.4587 0.430174 406.284
520 1 85.9451 1.90961 404.853 85.9451 1.90961 404.853
518 1 85.0688 4.12034 405.784 85.0688 4.12034 405.784
522 1 86.8114 4.12177 403.919 86.8114 4.12177 403.919
521 1 86.5876 2.64338 407.217 86.5876 2.64338 407.217
526 1 89.2035 0.433967 404.423 89.2035 0.433967 404.423
528 1 90.7209 3.38171 405.845 90.7209 3.38171 405.845
524 1 88.3316 2.6454 405.347 88.3316 2.6454 405.347
529 1 91.5964 1.171 404.914 91.5964 1.171 404.914
527 1 89.8502 1.16815 406.782 89.8502 1.16815 406.782
536 1 95.5023 0.430657 406.843 95.5023 0.430657 406.843
531 1 92.4625 3.38289 403.98 92.4625 3.38289 403.98
533 1 93.9829 1.90699 405.409 93.9829 1.90699 405.409
532 1 93.1105 4.11949 406.345 93.1105 4.11949 406.345
535 1 94.8546 4.12263 404.485 94.8546 4.12263 404.485
530 1 92.2399 1.90523 407.278 92.2399 1.90523 407.278
538 1 97.2479 0.432806 404.976 97.2479 0.432806 404.976
541 1 98.763 3.38358 406.407 98.763 3.38358 406.407
540 1 98.1133 2.64407 404.043 98.1133 2.64407 404.043
537 1 96.3727 2.64394 405.906 96.3727 2.64394 405.906
539 1 97.8929 1.16916 407.339 97.8929 1.16916 407.339
546 1 102.032 1.91011 405.962 102.032 1.91011 405.962
544 1 100.505 3.38698 404.549 100.505 3.38698 404.549
542 1 99.6348 1.17129 405.472 99.6348 1.17129 405.472
547 1 102.907 4.12724 405.032 102.907 4.12724 405.032
545 1 101.159 4.12347 406.901 101.159 4.12347 406.901
553 1 106.169 2.64782 404.586 106.169 2.64782 404.586
550 1 104.424 2.64555 406.456 104.424 2.64555 406.456
554 1 106.815 3.38366 406.949 106.815 3.38366 406.949
549 1 103.779 1.91213 404.092 103.779 1.91213 404.092
551 1 105.297 0.432963 405.518 105.297 0.432963 405.518
548 1 103.552 0.431479 407.392 103.552 0.431479 407.392
560 1 -61.4664 0.430321 409.815 -61.4664 0.430321 409.815
558 1 -62.9825 1.90689 408.382 -62.9825 1.90689 408.382
562 1 -60.5951 2.6472 408.88 -60.5951 2.6472 408.88
559 1 -62.3378 2.64146 410.749 -62.3378 2.64146 410.749
556 1 -63.8542 4.11826 409.317 -63.8542 4.11826 409.317
273 1 -59.7245 0.437049 407.946 -59.7245 0.437049 407.946
565 1 -58.2061 3.38513 409.38 -58.2061 3.38513 409.38
568 1 -56.6886 1.90646 410.815 -56.6886 1.90646 410.815
567 1 -57.3334 1.17304 408.449 -57.3334 1.17304 408.449
564 1 -59.0781 1.16913 410.314 -59.0781 1.16913 410.314
563 1 -59.9496 3.38031 411.248 -59.9496 3.38031 411.248
573 1 -53.4241 0.429914 410.385 -53.4241 0.429914 410.385
571 1 -54.9412 1.90759 408.952 -54.9412 1.90759 408.952
283 1 -54.0658 4.12032 408.02 -54.0658 4.12032 408.02
569 1 -55.8154 4.12111 409.882 -55.8154 4.12111 409.882
574 1 -52.5495 2.64408 409.455 -52.5495 2.64408 409.455
572 1 -54.2979 2.64321 411.317 -54.2979 2.64321 411.317
576 1 -51.6752 0.430385 408.522 -51.6752 0.430385 408.522
578 1 -50.159 3.38179 409.955 -50.159 3.38179 409.955
289 1 -50.8009 2.64594 407.592 -50.8009 2.64594 407.592
580 1 -49.2854 1.16919 409.023 -49.2854 1.16919 409.023
577 1 -51.033 1.16704 410.886 -51.033 1.16704 410.886
293 1 -48.4122 3.3849 408.091 -48.4122 3.3849 408.091
299 1 -45.1488 1.90999 407.656 -45.1488 1.90999 407.656
583 1 -46.8952 1.90717 409.522 -46.8952 1.90717 409.522
585 1 -46.022 4.12238 408.59 -46.022 4.12238 408.59
582 1 -47.7686 4.11947 410.455 -47.7686 4.11947 410.455
586 1 -45.3783 0.42918 410.954 -45.3783 0.42918 410.954
589 1 -43.6319 0.431843 409.088 -43.6319 0.431843 409.088
591 1 -42.1151 3.38107 410.519 -42.1151 3.38107 410.519
303 1 -42.7592 2.64646 408.155 -42.7592 2.64646 408.155
587 1 -44.5052 2.64413 410.021 -44.5052 2.64413 410.021
592 1 -41.2419 1.16872 409.586 -41.2419 1.16872 409.586
309 1 -39.4963 1.17141 407.719 -39.4963 1.17141 407.719