ITEM: TIMESTEP
0
ITEM: NUMBER OF ATOMS
4630
ITEM: BOX BOUNDS xy xz yz pp pp pp
-6.3324809255529431e+01 1.0634384110372943e+02 0.0000000000000000e+00
0.0000000000000000e+00 4.4274527100805940e+00 0.0000000000000000e+00
3.8000000000000000e+02 5.0000000000000000e+02 0.0000000000000000e+00
ITEM: ATOMS id type x y z xu yu zu
27 1 -45.5992 2.12763 399.521 -45.5992 2.12763 399.521
36 1 -39.9949 1.38601 399.579 -39.9949 1.38601 399.579
31 1 -43.208 2.82194 399.96 -43.208 2.82194 399.96
22 1 -48.7957 3.57386 399.929 -48.7957 3.57386 399.929
20 1 -49.6712 1.35215 400.776 -49.6712 1.35215 400.776
40 1 -37.6059 2.08171 400.02 -37.6059 2.08171 400.02
34 1 -40.8478 3.5844 400.415 -40.8478 3.5844 400.415
17 1 -52.0353 0.601147 400.328 -52.0353 0.601147 400.328
9 1 -57.604 1.29144 400.239 -57.604 1.29144 400.239
43 1 -35.2468 2.84494 400.476 -35.2468 2.84494 400.476
12 1 -55.2715 2.10353 400.723 -55.2715 2.10353 400.723
5 1 -59.9869 0.618958 399.777 -59.9869 0.618958 399.777
29 1 -44.069 0.593219 400.816 -44.069 0.593219 400.816
853 1 -57.036 2.73881 414.913 -57.036 2.73881 414.913
873 1 -45.838 1.26301 415.039 -45.838 1.26301 415.039
865 1 -49.9341 0.517055 416.416 -49.9341 0.517055 416.416
1174 1 -37.2306 1.98146 417.981 -37.2306 1.98146 417.981
883 1 -40.2379 0.523769 415.101 -40.2379 0.523769 415.101
863 1 -51.4383 2.00192 414.975 -51.4383 2.00192 414.975
315 1 -35.4713 1.33054 403.77 -35.4713 1.33054 403.77
307 1 -40.4296 2.7936 406.088 -40.4296 2.7936 406.088
1150 1 -51.6611 0.504908 418.294 -51.6611 0.504908 418.294
855 1 -55.5322 1.25425 416.353 -55.5322 1.25425 416.353
310 1 -38.7015 2.80627 404.215 -38.7015 2.80627 404.215
871 1 -46.7021 3.4711 415.978 -46.7021 3.4711 415.978
16 1 -52.8946 2.79959 401.185 -52.8946 2.79959 401.185
309 1 -38.9249 1.30867 407.526 -38.9249 1.30867 407.526
1156 1 -48.4299 3.45954 417.856 -48.4299 3.45954 417.856
867 1 -49.0703 2.73663 415.477 -49.0703 2.73663 415.477
1159 1 -46.0621 4.1941 418.356 -46.0621 4.1941 418.356
1168 1 -40.4624 3.45499 418.419 -40.4624 3.45499 418.419
1170 1 -39.5983 1.24693 417.48 -39.5983 1.24693 417.48
594 1 -39.789 3.51665 408.466 -39.789 3.51665 408.466
37 1 -39.3406 2.08256 401.859 -39.3406 2.08256 401.859
851 1 -57.8989 0.518723 415.852 -57.8989 0.518723 415.852
857 1 -54.6691 3.47431 415.413 -54.6691 3.47431 415.413
592 1 -40.6529 1.29719 409.405 -40.6529 1.29719 409.405
849 1 -58.762 2.72613 416.792 -58.762 2.72613 416.792
877 1 -43.4699 1.99739 415.54 -43.4699 1.99739 415.54
1143 1 -56.3952 3.46165 417.293 -56.3952 3.46165 417.293
1140 1 -58.1214 3.44903 419.172 -58.1214 3.44903 419.172
845 1 -61.1287 1.99067 416.292 -61.1287 1.99067 416.292
875 1 -44.3341 4.20548 416.479 -44.3341 4.20548 416.479
886 1 -38.5097 0.535174 413.223 -38.5097 0.535174 413.223
891 1 -35.278 3.48916 412.785 -35.278 3.48916 412.785
39 1 -37.8418 0.592022 403.263 -37.8418 0.592022 403.263
1177 1 -35.7271 0.496616 419.421 -35.7271 0.496616 419.421
1167 1 -41.3264 1.23559 419.358 -41.3264 1.23559 419.358
8 1 -58.4788 3.54718 401.198 -58.4788 3.54718 401.198
869 1 -47.5661 1.25166 416.917 -47.5661 1.25166 416.917
1136 1 -60.4882 2.71358 418.672 -60.4882 2.71358 418.672
1162 1 -44.5581 2.70911 419.796 -44.5581 2.70911 419.796
15 1 -53.763 0.599391 402.171 -53.763 0.599391 402.171
280 1 -55.4942 0.585955 404.027 -55.4942 0.585955 404.027
277 1 -57.2331 0.585864 405.895 -57.2331 0.585864 405.895
273 1 -58.9603 0.573316 407.77 -58.9603 0.573316 407.77
560 1 -60.6842 0.558429 409.651 -60.6842 0.558429 409.651
557 1 -62.4097 0.545039 411.532 -62.4097 0.545039 411.532
26 1 -45.8003 0.603184 402.701 -45.8003 0.603184 402.701
294 1 -47.5322 0.593373 404.588 -47.5322 0.593373 404.588
291 1 -49.2607 0.577416 406.464 -49.2607 0.577416 406.464
576 1 -50.989 0.564774 408.341 -50.989 0.564774 408.341
573 1 -52.7188 0.554819 410.217 -52.7188 0.554819 410.217
570 1 -54.4467 0.543851 412.094 -54.4467 0.543851 412.094
854 1 -56.173 0.531443 413.973 -56.173 0.531443 413.973
305 1 -41.2925 0.57445 407.027 -41.2925 0.57445 407.027
589 1 -43.0208 0.562842 408.905 -43.0208 0.562842 408.905
586 1 -44.7491 0.551205 410.783 -44.7491 0.551205 410.783
872 1 -46.4777 0.53982 412.661 -46.4777 0.53982 412.661
599 1 -36.7816 0.546675 411.345 -36.7816 0.546675 411.345
1132 1 -62.8551 1.97825 418.172 -62.8551 1.97825 418.172
4 1 -60.2525 3.5694 402.998 -60.2525 3.5694 402.998
268 1 -61.9667 3.54159 404.882 -61.9667 3.54159 404.882
1152 1 -50.7977 2.72476 417.355 -50.7977 2.72476 417.355
19 1 -50.5458 3.54282 401.706 -50.5458 3.54282 401.706
286 1 -52.2644 3.53417 403.571 -52.2644 3.53417 403.571
282 1 -53.992 3.52914 405.457 -53.992 3.52914 405.457
279 1 -55.7267 3.52444 407.333 -55.7267 3.52444 407.333
565 1 -57.4552 3.51434 409.21 -57.4552 3.51434 409.21
563 1 -59.1804 3.50102 411.091 -59.1804 3.50102 411.091
846 1 -60.9061 3.48791 412.972 -60.9061 3.48791 412.972
32 1 -42.5703 3.55241 402.287 -42.5703 3.55241 402.287
300 1 -44.3009 3.54552 404.155 -44.3009 3.54552 404.155
297 1 -46.0298 3.53354 406.028 -46.0298 3.53354 406.028
293 1 -47.7571 3.52115 407.905 -47.7571 3.52115 407.905
578 1 -49.4855 3.50904 409.782 -49.4855 3.50904 409.782
575 1 -51.2147 3.4981 411.658 -51.2147 3.4981 411.658
860 1 -52.9426 3.48667 413.535 -52.9426 3.48667 413.535
591 1 -41.5171 3.50509 410.344 -41.5171 3.50509 410.344
588 1 -43.2453 3.49364 412.222 -43.2453 3.49364 412.222
874 1 -44.9738 3.48234 414.1 -44.9738 3.48234 414.1
10 1 -56.9925 2.05831 402.595 -56.9925 2.05831 402.595
274 1 -58.7425 2.07518 404.447 -58.7425 2.07518 404.447
271 1 -60.4647 2.05875 406.327 -60.4647 2.05875 406.327
558 1 -62.1874 2.04258 408.21 -62.1874 2.04258 408.21
24 1 -47.3237 2.08207 401.295 -47.3237 2.08207 401.295
21 1 -49.0429 2.0751 403.146 -49.0429 2.0751 403.146
288 1 -50.7628 2.05994 405.026 -50.7628 2.05994 405.026
285 1 -52.4914 2.04762 406.903 -52.4914 2.04762 406.903
571 1 -54.2229 2.03926 408.776 -54.2229 2.03926 408.776
568 1 -55.951 2.02882 410.653 -55.951 2.02882 410.653
852 1 -57.6768 2.01615 412.532 -57.6768 2.01615 412.532
848 1 -59.4026 2.00329 414.412 -59.4026 2.00329 414.412
306 1 -41.0711 2.06975 403.709 -41.0711 2.06975 403.709
302 1 -42.7972 2.05881 405.585 -42.7972 2.05881 405.585
299 1 -44.5249 2.04796 407.465 -44.5249 2.04796 407.465
583 1 -46.253 2.03624 409.344 -46.253 2.03624 409.344
581 1 -47.9817 2.02459 411.221 -47.9817 2.02459 411.221
866 1 -49.7105 2.01346 413.098 -49.7105 2.01346 413.098
880 1 -41.7416 2.0087 413.662 -41.7416 2.0087 413.662
312 1 -37.1977 1.31982 405.646 -37.1977 1.31982 405.646
2 1 -61.7697 0.633136 401.562 -61.7697 0.633136 401.562
13 1 -54.6214 2.80344 403.074 -54.6214 2.80344 403.074
278 1 -56.3623 2.79943 404.956 -56.3623 2.79943 404.956
275 1 -58.0973 2.79417 406.828 -58.0973 2.79417 406.828
562 1 -59.8217 2.7794 408.71 -59.8217 2.7794 408.71
559 1 -61.5467 2.7653 410.591 -61.5467 2.7653 410.591
1166 1 -42.1904 3.44362 420.297 -42.1904 3.44362 420.297
889 1 -36.1421 1.26971 413.724 -36.1421 1.26971 413.724
28 1 -44.9401 2.82226 401.801 -44.9401 2.82226 401.801
296 1 -46.6718 2.81091 403.65 -46.6718 2.81091 403.65
292 1 -48.3975 2.79911 405.525 -48.3975 2.79911 405.525
289 1 -50.1242 2.78486 407.404 -50.1242 2.78486 407.404
574 1 -51.8539 2.77368 409.28 -51.8539 2.77368 409.28
572 1 -53.5831 2.76338 411.155 -53.5831 2.76338 411.155
856 1 -55.31 2.7515 413.033 -55.31 2.7515 413.033
303 1 -42.1571 2.78204 407.965 -42.1571 2.78204 407.965
587 1 -43.8851 2.77065 409.844 -43.8851 2.77065 409.844
584 1 -45.6134 2.75918 411.722 -45.6134 2.75918 411.722
870 1 -47.342 2.74794 413.599 -47.342 2.74794 413.599
6 1 -59.3751 1.35371 402.072 -59.3751 1.35371 402.072
270 1 -61.1088 1.34061 403.936 -61.1088 1.34061 403.936
267 1 -62.8267 1.31959 405.827 -62.8267 1.31959 405.827
890 1 -35.5025 1.99284 416.103 -35.5025 1.99284 416.103
18 1 -51.3961 1.32731 402.653 -51.3961 1.32731 402.653
284 1 -53.1255 1.32079 404.527 -53.1255 1.32079 404.527
281 1 -54.8603 1.31367 406.399 -54.8603 1.31367 406.399
567 1 -56.5921 1.30671 408.272 -56.5921 1.30671 408.272
564 1 -58.318 1.29405 410.151 -58.318 1.29405 410.151
561 1 -60.0433 1.28068 412.032 -60.0433 1.28068 412.032
844 1 -61.7692 1.26782 413.912 -61.7692 1.26782 413.912
33 1 -41.7252 1.34241 401.348 -41.7252 1.34241 401.348
30 1 -43.4415 1.33119 403.203 -43.4415 1.33119 403.203
298 1 -45.1655 1.32546 405.085 -45.1655 1.32546 405.085
295 1 -46.8931 1.31388 406.966 -46.8931 1.31388 406.966
580 1 -48.6212 1.30103 408.843 -48.6212 1.30103 408.843
577 1 -50.3502 1.28968 410.72 -50.3502 1.28968 410.72
862 1 -52.0789 1.27875 412.596 -52.0789 1.27875 412.596
590 1 -42.3811 1.28567 411.283 -42.3811 1.28567 411.283
876 1 -44.1095 1.27425 413.161 -44.1095 1.27425 413.161
1163 1 -43.6942 0.501117 418.857 -43.6942 0.501117 418.857
1153 1 -50.157 3.44751 419.734 -50.157 3.44751 419.734
311 1 -38.0604 3.52869 406.588 -38.0604 3.52869 406.588
42 1 -36.1246 0.602732 401.409 -36.1246 0.602732 401.409
1135 1 -61.3514 0.493627 419.612 -61.3514 0.493627 419.612
1171 1 -38.9587 1.97011 419.859 -38.9587 1.97011 419.859
1139 1 -58.9845 1.22903 420.112 -58.9845 1.22903 420.112
601 1 -35.9176 2.76612 410.406 -35.9176 2.76612 410.406
313 1 -36.3304 3.54107 404.709 -36.3304 3.54107 404.709
858 1 -53.8059 1.26682 414.474 -53.8059 1.26682 414.474
868 1 -48.2063 0.528623 414.538 -48.2063 0.528623 414.538
1147 1 -54.0283 4.19711 417.793 -54.0283 4.19711 417.793
843 1 -62.6323 3.47528 414.852 -62.6323 3.47528 414.852
593 1 -40.0134 2.02012 411.784 -40.0134 2.02012 411.784
308 1 -39.5651 0.585827 405.145 -39.5651 0.585827 405.145
861 1 -52.3018 4.20959 415.914 -52.3018 4.20959 415.914
1158 1 -46.9259 1.97455 419.296 -46.9259 1.97455 419.296
884 1 -39.3738 2.74319 414.162 -39.3738 2.74319 414.162
881 1 -41.102 2.73183 416.04 -41.102 2.73183 416.04
885 1 -38.7342 3.46633 416.541 -38.7342 3.46633 416.541
859 1 -53.1651 1.98966 416.854 -53.1651 1.98966 416.854
596 1 -38.2853 2.03158 409.905 -38.2853 2.03158 409.905
879 1 -41.9661 0.512451 416.979 -41.9661 0.512451 416.979
1172 1 -38.0947 4.18951 418.92 -38.0947 4.18951 418.92
1154 1 -49.2935 1.23986 418.795 -49.2935 1.23986 418.795
887 1 -37.8702 1.25829 415.602 -37.8702 1.25829 415.602
597 1 -37.6457 2.75462 412.284 -37.6457 2.75462 412.284
1161 1 -45.1981 1.9861 417.418 -45.1981 1.9861 417.418
1138 1 -59.6251 0.506109 417.732 -59.6251 0.506109 417.732
1149 1 -52.5243 2.71242 419.233 -52.5243 2.71242 419.233
41 1 -36.9704 2.81286 402.347 -36.9704 2.81286 402.347
888 1 -37.0061 3.47771 414.663 -37.0061 3.47771 414.663
1165 1 -42.8302 2.72053 417.918 -42.8302 2.72053 417.918
1141 1 -57.2583 1.2416 418.232 -57.2583 1.2416 418.232
1145 1 -54.8914 1.97708 418.733 -54.8914 1.97708 418.733
600 1 -36.5576 2.04304 408.027 -36.5576 2.04304 408.027
1148 1 -53.3875 0.492438 420.173 -53.3875 0.492438 420.173
882 1 -40.8775 4.22811 412.723 -40.8775 4.22811 412.723
1157 1 -47.7895 4.18235 420.235 -47.7895 4.18235 420.235
1144 1 -55.7546 4.1845 419.673 -55.7546 4.1845 419.673
602 1 -35.0535 0.558255 409.467 -35.0535 0.558255 409.467
1131 1 -63.0777 0.481242 421.492 -63.0777 0.481242 421.492
1755 1 -35.536 2.65479 428.436 -35.536 2.65479 428.436
1460 1 -40.0467 2.68178 424.116 -40.0467 2.68178 424.116
2308 1 -49.7661 3.33221 437.77 -49.7661 3.33221 437.77
2316 1 -44.8102 1.87205 435.451 -44.8102 1.87205 435.451
2312 1 -47.3994 4.06739 438.27 -47.3994 4.06739 438.27
1464 1 -37.6793 3.41643 424.617 -37.6793 3.41643 424.617
1461 1 -39.1829 0.473821 423.177 -39.1829 0.473821 423.177
2039 1 -38.3501 3.35425 434.573 -38.3501 3.35425 434.573
2613 1 -40.2994 1.84531 439.771 -40.2994 1.84531 439.771
1467 1 -35.3119 4.15109 425.118 -35.3119 4.15109 425.118
2603 1 -45.8957 2.58268 439.71 -45.8957 2.58268 439.71
1443 1 -49.5164 4.17024 422.113 -49.5164 4.17024 422.113
1748 1 -39.4068 3.40484 426.495 -39.4068 3.40484 426.495
2023 1 -47.177 1.13694 434.951 -47.177 1.13694 434.951
2310 1 -48.2624 1.84752 439.21 -48.2624 1.84752 439.21
1151 1 -51.0204 1.22764 420.673 -51.0204 1.22764 420.673
2303 1 -52.9958 0.377082 438.209 -52.9958 0.377082 438.209
2299 1 -55.3626 4.06925 437.709 -55.3626 4.06925 437.709
2033 1 -41.5802 0.399479 435.012 -41.5802 0.399479 435.012
1433 1 -55.1139 0.479887 422.052 -55.1139 0.479887 422.052
1430 1 -56.8402 0.46735 423.932 -56.8402 0.46735 423.932
1426 1 -58.5664 0.454847 425.811 -58.5664 0.454847 425.811
1713 1 -60.2927 0.44238 427.691 -60.2927 0.44238 427.691
1710 1 -62.0189 0.429944 429.57 -62.0189 0.429944 429.57
2330 1 -36.2064 2.59255 438.392 -36.2064 2.59255 438.392
1160 1 -45.4219 0.489565 420.735 -45.4219 0.489565 420.735
1447 1 -47.1491 0.477687 422.614 -47.1491 0.477687 422.614
1444 1 -48.8759 0.465537 424.493 -48.8759 0.465537 424.493
1730 1 -50.6024 0.453222 426.372 -50.6024 0.453222 426.372
1727 1 -52.3288 0.440825 428.251 -52.3288 0.440825 428.251
1724 1 -54.0551 0.428393 430.131 -54.0551 0.428393 430.131
2008 1 -55.7812 0.415947 432.01 -55.7812 0.415947 432.01
2006 1 -57.5073 0.403503 433.89 -57.5073 0.403503 433.89
1458 1 -40.9104 0.462241 425.055 -40.9104 0.462241 425.055
1743 1 -42.6376 0.450455 426.934 -42.6376 0.450455 426.934
1740 1 -44.3645 0.438471 428.813 -44.3645 0.438471 428.813
2026 1 -46.0911 0.426332 430.692 -46.0911 0.426332 430.692
2022 1 -47.8175 0.414089 432.571 -47.8175 0.414089 432.571
2019 1 -49.5438 0.401782 434.45 -49.5438 0.401782 434.45
2309 1 -48.9031 1.12464 436.83 -48.9031 1.12464 436.83
1137 1 -59.8477 3.4365 421.052 -59.8477 3.4365 421.052
1421 1 -61.574 3.42406 422.931 -61.574 3.42406 422.931
1439 1 -51.8836 3.43516 421.613 -51.8836 3.43516 421.613
1435 1 -53.6101 3.42268 423.492 -53.6101 3.42268 423.492
1432 1 -55.3364 3.41018 425.372 -55.3364 3.41018 425.372
1719 1 -57.0627 3.39768 427.251 -57.0627 3.39768 427.251
1716 1 -58.7889 3.38521 429.131 -58.7889 3.38521 429.131
2001 1 -60.515 3.37275 431.01 -60.515 3.37275 431.01
1998 1 -62.2411 3.36033 432.89 -62.2411 3.36033 432.89
2323 1 -40.0766 3.34219 436.452 -40.0766 3.34219 436.452
1453 1 -43.918 3.43206 422.175 -43.918 3.43206 422.175
1450 1 -45.6452 3.42022 424.054 -45.6452 3.42022 424.054
1446 1 -47.372 3.40814 425.933 -47.372 3.40814 425.933
1732 1 -49.0986 3.3959 427.812 -49.0986 3.3959 427.812
1729 1 -50.825 3.38356 429.691 -50.825 3.38356 429.691
2014 1 -52.5513 3.37117 431.571 -52.5513 3.37117 431.571
2011 1 -54.2774 3.35876 433.45 -54.2774 3.35876 433.45
1745 1 -41.1339 3.39306 428.374 -41.1339 3.39306 428.374
1742 1 -42.8608 3.38111 430.253 -42.8608 3.38111 430.253
2028 1 -44.5874 3.36901 432.132 -44.5874 3.36901 432.132
2025 1 -46.3138 3.3568 434.011 -46.3138 3.3568 434.011
1427 1 -58.3439 1.95194 422.492 -58.3439 1.95194 422.492
1424 1 -60.0702 1.93945 424.371 -60.0702 1.93945 424.371
1711 1 -61.7965 1.92701 426.251 -61.7965 1.92701 426.251
2322 1 -40.9398 1.1224 437.391 -40.9398 1.1224 437.391
1750 1 -37.9032 1.92002 427.935 -37.9032 1.92002 427.935
1155 1 -48.653 1.96261 421.174 -48.653 1.96261 421.174
1441 1 -50.3797 1.95037 423.053 -50.3797 1.95037 423.053
1438 1 -52.1062 1.93797 424.932 -52.1062 1.93797 424.932
1725 1 -53.8326 1.92552 426.811 -53.8326 1.92552 426.811
1722 1 -55.5588 1.91305 428.691 -55.5588 1.91305 428.691
1718 1 -57.285 1.90058 430.57 -57.285 1.90058 430.57
2003 1 -59.0112 1.88813 432.45 -59.0112 1.88813 432.45
2000 1 -60.7372 1.87569 434.33 -60.7372 1.87569 434.33
1459 1 -40.6866 1.9587 421.737 -40.6866 1.9587 421.737
1455 1 -42.4142 1.94713 423.615 -42.4142 1.94713 423.615
1452 1 -44.1414 1.93533 425.494 -44.1414 1.93533 425.494
1737 1 -45.8682 1.9233 427.373 -45.8682 1.9233 427.373
1735 1 -47.5948 1.91112 429.252 -47.5948 1.91112 429.252
2020 1 -49.3212 1.89883 431.131 -49.3212 1.89883 431.131
2017 1 -51.0475 1.88648 433.01 -51.0475 1.88648 433.01
2034 1 -41.3572 1.89631 431.693 -41.3572 1.89631 431.693
2031 1 -43.0838 1.88424 433.572 -43.0838 1.88424 433.572
2029 1 -43.947 4.09188 434.511 -43.947 4.09188 434.511
1146 1 -54.2507 2.69989 421.113 -54.2507 2.69989 421.113
1431 1 -55.977 2.68734 422.992 -55.977 2.68734 422.992
1428 1 -57.7033 2.67482 424.871 -57.7033 2.67482 424.871
1715 1 -59.4296 2.66234 426.751 -59.4296 2.66234 426.751
1712 1 -61.1558 2.64988 428.631 -61.1558 2.64988 428.631
1708 1 -62.882 2.63746 430.51 -62.882 2.63746 430.51
1747 1 -39.6303 1.90825 429.814 -39.6303 1.90825 429.814
1449 1 -46.2855 2.69739 421.675 -46.2855 2.69739 421.675
1445 1 -48.0125 2.68537 423.553 -48.0125 2.68537 423.553
1442 1 -49.7392 2.67312 425.432 -49.7392 2.67312 425.432
1728 1 -51.4656 2.66076 427.312 -51.4656 2.66076 427.312
1726 1 -53.1919 2.64834 429.191 -53.1919 2.64834 429.191
2010 1 -54.9181 2.6359 431.07 -54.9181 2.6359 431.07
2007 1 -56.6443 2.62345 432.95 -56.6443 2.62345 432.95
1456 1 -41.7741 2.6701 425.994 -41.7741 2.6701 425.994
1741 1 -43.5011 2.65821 427.873 -43.5011 2.65821 427.873
1738 1 -45.2278 2.64614 429.752 -45.2278 2.64614 429.752
2024 1 -46.9543 2.63395 431.631 -46.9543 2.63395 431.631
2021 1 -48.6807 2.62167 433.511 -48.6807 2.62167 433.511
2035 1 -40.7169 2.61925 434.072 -40.7169 2.61925 434.072
1754 1 -36.1757 1.93162 426.057 -36.1757 1.93162 426.057
1423 1 -60.7108 1.21655 421.992 -60.7108 1.21655 421.992
1420 1 -62.4371 1.20413 423.871 -62.4371 1.20413 423.871
2044 1 -35.1198 1.88147 434.134 -35.1198 1.88147 434.134
1437 1 -52.7469 1.2152 422.553 -52.7469 1.2152 422.553
1434 1 -54.4732 1.20271 424.432 -54.4732 1.20271 424.432
1721 1 -56.1995 1.1902 426.311 -56.1995 1.1902 426.311
1717 1 -57.9258 1.17772 428.191 -57.9258 1.17772 428.191
1714 1 -59.6519 1.16525 430.07 -59.6519 1.16525 430.07
1999 1 -61.3781 1.15281 431.95 -61.3781 1.15281 431.95
1997 1 -63.1042 1.14039 433.83 -63.1042 1.14039 433.83
1164 1 -43.0542 1.22414 421.236 -43.0542 1.22414 421.236
1451 1 -44.7816 1.21245 423.115 -44.7816 1.21245 423.115
1448 1 -46.5086 1.20048 424.993 -46.5086 1.20048 424.993
1734 1 -48.2353 1.18831 426.872 -48.2353 1.18831 426.872
1731 1 -49.9618 1.17601 428.752 -49.9618 1.17601 428.752
2016 1 -51.6882 1.16364 430.631 -51.6882 1.16364 430.631
2012 1 -53.4144 1.15124 432.51 -53.4144 1.15124 432.51
2009 1 -55.1405 1.13882 434.39 -55.1405 1.13882 434.39
1746 1 -40.2704 1.18525 427.434 -40.2704 1.18525 427.434
1744 1 -41.9974 1.17338 429.313 -41.9974 1.17338 429.313
2030 1 -43.7242 1.16135 431.192 -43.7242 1.16135 431.192
2027 1 -45.4507 1.14919 433.071 -45.4507 1.14919 433.071
2325 1 -39.2134 1.13451 435.512 -39.2134 1.13451 435.512
1749 1 -38.7668 4.12788 428.874 -38.7668 4.12788 428.874
1425 1 -59.2071 4.15941 423.432 -59.2071 4.15941 423.432
1736 1 -46.7316 4.13095 428.312 -46.7316 4.13095 428.312
1142 1 -56.6177 1.96448 420.612 -56.6177 1.96448 420.612
1720 1 -56.422 4.12054 429.631 -56.422 4.12054 429.631
2005 1 -58.1481 4.10808 431.51 -58.1481 4.10808 431.51
2002 1 -59.8742 4.09563 433.39 -59.8742 4.09563 433.39
1169 1 -39.8227 4.17815 420.798 -39.8227 4.17815 420.798
1723 1 -54.6957 4.13301 427.751 -54.6957 4.13301 427.751
1440 1 -51.243 4.15791 423.993 -51.243 4.15791 423.993
1733 1 -48.4581 4.11871 430.191 -48.4581 4.11871 430.191
2018 1 -50.1844 4.10639 432.071 -50.1844 4.10639 432.071
2015 1 -51.9106 4.09402 433.95 -51.9106 4.09402 433.95
2036 1 -40.4938 4.11603 430.753 -40.4938 4.11603 430.753
2032 1 -42.2205 4.10402 432.632 -42.2205 4.10402 432.632
2326 1 -38.5731 1.85747 437.892 -38.5731 1.85747 437.892
1752 1 -37.0395 4.13957 426.996 -37.0395 4.13957 426.996
1457 1 -41.5504 4.16667 422.676 -41.5504 4.16667 422.676
2043 1 -35.7597 1.15836 431.755 -35.7597 1.15836 431.755
2286 1 -62.4632 1.86327 436.209 -62.4632 1.86327 436.209
2319 1 -42.666 1.1102 439.27 -42.666 1.1102 439.27
1436 1 -52.9694 4.14548 425.872 -52.9694 4.14548 425.872
1422 1 -60.9334 4.14695 425.311 -60.9334 4.14695 425.311
1173 1 -37.4551 0.48525 421.299 -37.4551 0.48525 421.299
2293 1 -58.5924 1.11399 438.149 -58.5924 1.11399 438.149
2289 1 -60.9593 0.378654 437.649 -60.9593 0.378654 437.649
2295 1 -57.0885 4.05686 439.589 -57.0885 4.05686 439.589
1465 1 -36.8154 1.20844 423.678 -36.8154 1.20844 423.678
2315 1 -45.0327 0.375082 438.77 -45.0327 0.375082 438.77
2331 1 -35.9832 4.08924 435.073 -35.9832 4.08924 435.073
2297 1 -56.2256 1.84933 438.649 -56.2256 1.84933 438.649
2324 1 -39.4363 4.06513 438.831 -39.4363 4.06513 438.831
2306 1 -50.6291 1.11232 438.709 -50.6291 1.11232 438.709
2285 1 -62.6852 0.36626 439.528 -62.6852 0.36626 439.528
1462 1 -38.5431 1.19693 425.556 -38.5431 1.19693 425.556
1751 1 -37.2632 2.6431 430.315 -37.2632 2.6431 430.315
2329 1 -36.8466 1.86953 436.013 -36.8466 1.86953 436.013
2042 1 -36.6233 3.36618 432.694 -36.6233 3.36618 432.694
2041 1 -37.4867 1.14651 433.633 -37.4867 1.14651 433.633
2593 1 -51.4921 3.31989 439.649 -51.4921 3.31989 439.649
2328 1 -37.0696 0.372771 439.332 -37.0696 0.372771 439.332
2301 1 -53.8588 2.58463 439.149 -53.8588 2.58463 439.149
1466 1 -35.9515 3.42788 422.739 -35.9515 3.42788 422.739
2298 1 -56.0035 3.34634 435.33 -56.0035 3.34634 435.33
2321 1 -41.8029 3.33004 438.331 -41.8029 3.33004 438.331
2313 1 -46.5364 1.85981 437.33 -46.5364 1.85981 437.33
2294 1 -57.7294 3.33392 437.209 -57.7294 3.33392 437.209
2304 1 -52.1329 2.59699 437.27 -52.1329 2.59699 437.27
2300 1 -54.4996 1.86171 436.769 -54.4996 1.86171 436.769
2290 1 -60.0963 2.59859 436.709 -60.0963 2.59859 436.709
2318 1 -43.3065 0.387315 436.891 -43.3065 0.387315 436.891
2327 1 -37.7099 4.07724 436.952 -37.7099 4.07724 436.952
2004 1 -58.3703 2.61101 434.83 -58.3703 2.61101 434.83
2013 1 -52.7736 1.8741 434.89 -52.7736 1.8741 434.89
2288 1 -61.6002 4.0832 435.269 -61.6002 4.0832 435.269
2037 1 -39.8536 0.411543 433.133 -39.8536 0.411543 433.133
1739 1 -45.0048 4.14306 426.433 -45.0048 4.14306 426.433
1753 1 -36.3996 0.435241 429.375 -36.3996 0.435241 429.375
2307 1 -50.4068 2.60934 435.39 -50.4068 2.60934 435.39
2314 1 -45.6733 4.07966 436.391 -45.6733 4.07966 436.391
2040 1 -38.1268 0.423471 431.254 -38.1268 0.423471 431.254
2320 1 -42.4434 2.60713 435.951 -42.4434 2.60713 435.951
2292 1 -59.2333 0.39107 435.769 -59.2333 0.39107 435.769
2311 1 -48.04 3.34452 435.89 -48.04 3.34452 435.89
2302 1 -53.6366 4.08164 435.83 -53.6366 4.08164 435.83
2296 1 -56.8665 1.1264 436.269 -56.8665 1.1264 436.269
1463 1 -38.319 2.69328 422.238 -38.319 2.69328 422.238
2287 1 -61.8222 2.58618 438.589 -61.8222 2.58618 438.589
2291 1 -59.4553 3.32152 439.089 -59.4553 3.32152 439.089
2317 1 -44.1696 2.59493 437.83 -44.1696 2.59493 437.83
2038 1 -38.9902 2.63125 432.193 -38.9902 2.63125 432.193
2305 1 -51.2699 0.389438 436.33 -51.2699 0.389438 436.33
2332 1 -35.3432 0.384842 437.453 -35.3432 0.384842 437.453
1709 1 -62.6596 4.13453 427.191 -62.6596 4.13453 427.191
1468 1 -35.0876 1.21984 421.8 -35.0876 1.21984 421.8
1454 1 -43.2778 4.15499 424.555 -43.2778 4.15499 424.555
1429 1 -57.4808 4.17193 421.552 -57.4808 4.17193 421.552
1133 1 -62.2145 2.70115 420.552 -62.2145 2.70115 420.552
1175 1 -36.5911 2.70466 420.36 -36.5911 2.70466 420.36
2616 1 -38.1554 1.08353 443.591 -38.1554 1.08353 443.591
2901 1 -39.8812 1.07127 445.47 -39.8812 1.07127 445.47
2907 1 -36.6519 4.02629 445.031 -36.6519 4.02629 445.031
3194 1 -37.7369 0.309447 449.29 -37.7369 0.309447 449.29
2587 1 -54.7217 0.36473 440.089 -54.7217 0.36473 440.089
2597 1 -49.1254 4.05509 440.149 -49.1254 4.05509 440.149
2584 1 -56.4475 0.352394 441.968 -56.4475 0.352394 441.968
2581 1 -58.1732 0.340082 443.848 -58.1732 0.340082 443.848
2868 1 -59.8989 0.327794 445.728 -59.8989 0.327794 445.728
2865 1 -61.6244 0.315524 447.607 -61.6244 0.315524 447.607
2601 1 -46.7587 0.362811 440.65 -46.7587 0.362811 440.65
2598 1 -48.4845 0.350528 442.529 -48.4845 0.350528 442.529
2885 1 -50.2103 0.338261 444.409 -50.2103 0.338261 444.409
2882 1 -51.9359 0.326034 446.288 -51.9359 0.326034 446.288
2879 1 -53.6615 0.313869 448.168 -53.6615 0.313869 448.168
2612 1 -40.5219 0.348379 443.09 -40.5219 0.348379 443.09
2898 1 -42.2477 0.336117 444.97 -42.2477 0.336117 444.97
2895 1 -43.9733 0.323847 446.849 -43.9733 0.323847 446.849
3180 1 -45.6988 0.311598 448.729 -45.6988 0.311598 448.729
2576 1 -61.1812 3.30914 440.968 -61.1812 3.30914 440.968
2574 1 -62.9069 3.29677 442.848 -62.9069 3.29677 442.848
2589 1 -53.2179 3.30757 441.529 -53.2179 3.30757 441.529
2586 1 -54.9436 3.29528 443.408 -54.9436 3.29528 443.408
2874 1 -56.6693 3.28302 445.288 -56.6693 3.28302 445.288
2871 1 -58.3949 3.2708 447.168 -58.3949 3.2708 447.168
3155 1 -60.1204 3.25861 449.047 -60.1204 3.25861 449.047
2607 1 -43.5291 3.31781 440.21 -43.5291 3.31781 440.21
2604 1 -45.255 3.30555 442.09 -45.255 3.30555 442.09
2600 1 -46.9808 3.29327 443.969 -46.9808 3.29327 443.969
2887 1 -48.7065 3.28101 445.849 -48.7065 3.28101 445.849
2884 1 -50.432 3.2688 447.728 -50.432 3.2688 447.728
3168 1 -52.1575 3.25665 449.608 -52.1575 3.25665 449.608
2900 1 -40.7441 3.27886 446.41 -40.7441 3.27886 446.41
2897 1 -42.4696 3.26659 448.289 -42.4696 3.26659 448.289
2582 1 -57.9514 1.83695 440.529 -57.9514 1.83695 440.529
2579 1 -59.6772 1.8246 442.408 -59.6772 1.8246 442.408
2866 1 -61.4029 1.81226 444.288 -61.4029 1.81226 444.288
2578 1 -60.3182 1.1016 440.028 -60.3182 1.1016 440.028
2595 1 -49.9883 1.83522 441.089 -49.9883 1.83522 441.089
2592 1 -51.7141 1.82293 442.969 -51.7141 1.82293 442.969
2880 1 -53.4398 1.81068 444.848 -53.4398 1.81068 444.848
2877 1 -55.1654 1.79848 446.728 -55.1654 1.79848 446.728
2873 1 -56.8909 1.78633 448.608 -56.8909 1.78633 448.608
2609 1 -42.0255 1.83309 441.65 -42.0255 1.83309 441.65
2606 1 -43.7513 1.82083 443.53 -43.7513 1.82083 443.53
2892 1 -45.477 1.80856 445.409 -45.477 1.80856 445.409
2890 1 -47.2026 1.7963 447.289 -47.2026 1.7963 447.289
3174 1 -48.9281 1.78409 449.168 -48.9281 1.78409 449.168
2618 1 -37.2924 3.30337 442.651 -37.2924 3.30337 442.651
2585 1 -55.5846 2.57229 441.029 -55.5846 2.57229 441.029
2583 1 -57.3104 2.55996 442.908 -57.3104 2.55996 442.908
2870 1 -59.0361 2.54766 444.788 -59.0361 2.54766 444.788
2867 1 -60.7617 2.53538 446.667 -60.7617 2.53538 446.667
2863 1 -62.4872 2.52312 448.547 -62.4872 2.52312 448.547
2599 1 -47.6216 2.5704 441.589 -47.6216 2.5704 441.589
2596 1 -49.3474 2.55812 443.469 -49.3474 2.55812 443.469
2883 1 -51.0731 2.54587 445.349 -51.0731 2.54587 445.349
2881 1 -52.7987 2.53367 447.228 -52.7987 2.53367 447.228
3164 1 -54.5243 2.52154 449.108 -54.5243 2.52154 449.108
2610 1 -41.3848 2.55598 444.03 -41.3848 2.55598 444.03
2896 1 -43.1105 2.54371 445.909 -43.1105 2.54371 445.909
2893 1 -44.8361 2.53144 447.789 -44.8361 2.53144 447.789
3178 1 -46.5615 2.51922 449.668 -46.5615 2.51922 449.668
2575 1 -62.044 1.08923 441.908 -62.044 1.08923 441.908
2591 1 -52.355 1.1 440.589 -52.355 1.1 440.589
2588 1 -54.0808 1.08769 442.469 -54.0808 1.08769 442.469
2876 1 -55.8065 1.07542 444.348 -55.8065 1.07542 444.348
2872 1 -57.5321 1.06318 446.228 -57.5321 1.06318 446.228
2869 1 -59.2577 1.05098 448.107 -59.2577 1.05098 448.107
2605 1 -44.392 1.09796 441.15 -44.392 1.09796 441.15
2602 1 -46.1179 1.08568 443.029 -46.1179 1.08568 443.029
2889 1 -47.8436 1.07341 444.909 -47.8436 1.07341 444.909
2886 1 -49.5693 1.06117 446.788 -49.5693 1.06117 446.788
3170 1 -51.2948 1.04899 448.668 -51.2948 1.04899 448.668
2899 1 -41.6069 1.059 447.349 -41.6069 1.059 447.349
3184 1 -43.3323 1.04674 449.229 -43.3323 1.04674 449.229
2580 1 -58.8143 4.0445 441.468 -58.8143 4.0445 441.468
2577 1 -60.54 4.03215 443.348 -60.54 4.03215 443.348
2864 1 -62.2657 4.01983 445.227 -62.2657 4.01983 445.227
2862 1 -63.1285 1.79994 446.167 -63.1285 1.79994 446.167
2594 1 -50.8512 4.0428 442.029 -50.8512 4.0428 442.029
2590 1 -52.5769 4.03053 443.909 -52.5769 4.03053 443.909
2878 1 -54.3026 4.0183 445.788 -54.3026 4.0183 445.788
2875 1 -56.0282 4.00612 447.668 -56.0282 4.00612 447.668
3159 1 -57.7537 3.99401 449.547 -57.7537 3.99401 449.547
2611 1 -41.1624 4.05294 440.71 -41.1624 4.05294 440.71
2608 1 -42.8884 4.04069 442.59 -42.8884 4.04069 442.59
2894 1 -44.6142 4.02842 444.469 -44.6142 4.02842 444.469
2891 1 -46.3399 4.01615 446.349 -46.3399 4.01615 446.349
2888 1 -48.0654 4.00392 448.228 -48.0654 4.00392 448.228
2904 1 -38.3777 4.01402 446.91 -38.3777 4.01402 446.91
2621 1 -35.5662 3.31555 440.772 -35.5662 3.31555 440.772
2617 1 -37.9328 2.58042 440.271 -37.9328 2.58042 440.271
2614 1 -39.6589 2.56823 442.151 -39.6589 2.56823 442.151
2908 1 -36.0114 0.321748 447.411 -36.0114 0.321748 447.411
2619 1 -36.4293 1.09574 441.711 -36.4293 1.09574 441.711
2906 1 -36.8742 2.52932 448.35 -36.8742 2.52932 448.35
2905 1 -37.5148 1.80643 445.97 -37.5148 1.80643 445.97
2620 1 -35.789 1.81869 444.091 -35.789 1.81869 444.091
3190 1 -40.1032 4.00174 448.79 -40.1032 4.00174 448.79
2902 1 -39.2405 1.79415 447.85 -39.2405 1.79415 447.85
2903 1 -39.0183 3.29113 444.53 -39.0183 3.29113 444.53
2615 1 -38.7959 0.360606 441.211 -38.7959 0.360606 441.211
2909 1 -35.1485 2.54162 446.471 -35.1485 2.54162 446.471
14 1 -54.4233 4.33328 399.886 -54.4233 4.33328 399.886
7 1 -59.0831 2.83436 398.979 -59.0831 2.83436 398.979
25 1 -46.4477 4.32578 400.361 -46.4477 4.32578 400.361
38 1 -38.4681 4.28018 400.875 -38.4681 4.28018 400.875
23 1 -48.176 4.29716 402.232 -48.176 4.29716 402.232
287 1 -51.6272 4.26536 405.961 -51.6272 4.26536 405.961
878 1 -42.6057 4.21675 414.601 -42.6057 4.21675 414.601
579 1 -48.8461 4.23278 412.16 -48.8461 4.23278 412.16
585 1 -45.3889 4.25593 408.405 -45.3889 4.25593 408.405
290 1 -49.9033 4.27837 404.084 -49.9033 4.27837 404.084
11 1 -56.1336 4.28041 401.674 -56.1336 4.28041 401.674
595 1 -39.1493 4.23958 410.845 -39.1493 4.23958 410.845
1134 1 -61.9919 4.19817 417.232 -61.9919 4.19817 417.232
283 1 -53.3573 4.25671 407.838 -53.3573 4.25671 407.838
582 1 -47.1173 4.24409 410.283 -47.1173 4.24409 410.283
276 1 -57.8731 4.28797 403.53 -57.8731 4.28797 403.53
569 1 -55.0873 4.24808 409.713 -55.0873 4.24808 409.713
847 1 -60.2656 4.21068 415.352 -60.2656 4.21068 415.352
556 1 -63.0501 4.2496 409.151 -63.0501 4.2496 409.151
272 1 -59.6063 4.28201 405.388 -59.6063 4.28201 405.388
3 1 -60.9051 2.84512 400.664 -60.9051 2.84512 400.664
35 1 -40.1999 4.29121 402.759 -40.1999 4.29121 402.759
598 1 -37.4212 4.25121 408.966 -37.4212 4.25121 408.966
850 1 -58.5396 4.22341 413.472 -58.5396 4.22341 413.472