ITEM: TIMESTEP
0
ITEM: NUMBER OF ATOMS
4630
ITEM: BOX BOUNDS xy xz yz pp pp pp
-6.4050441938844756e+01 1.0706947378704476e+02 0.0000000000000000e+00
0.0000000000000000e+00 4.4274527100805940e+00 0.0000000000000000e+00
3.8000000000000000e+02 5.0000000000000000e+02 0.0000000000000000e+00
ITEM: ATOMS id type x y z xu yu zu
7 1 -59.7509 2.67665 399.182 -59.7509 2.67665 399.182
27 1 -46.1425 1.97494 399.734 -46.1425 1.97494 399.734
36 1 -40.4947 1.23436 399.793 -40.4947 1.23436 399.793
45 1 -34.8494 0.495742 399.855 -34.8494 0.495742 399.855
85 1 -9.01528 0.502039 399.68 -9.01528 0.502039 399.68
94 1 -3.36701 4.18925 399.739 -3.36701 4.18925 399.739
103 1 2.27801 3.45075 399.801 2.27801 3.45075 399.801
112 1 7.92269 2.7125 399.863 7.92269 2.7125 399.863
152 1 33.7556 2.71366 399.682 33.7556 2.71366 399.682
161 1 39.4048 1.9716 399.738 39.4048 1.9716 399.738
170 1 45.0512 1.23142 399.797 45.0512 1.23142 399.797
227 1 82.1826 4.18298 399.733 82.1826 4.18298 399.733
236 1 87.8315 3.44205 399.79 87.8315 3.44205 399.79
245 1 93.4764 2.70258 399.851 93.4764 2.70258 399.851
5 1 -60.65 0.463485 399.98 -60.65 0.463485 399.98
2 1 -62.4603 0.481045 401.745 -62.4603 0.481045 401.745
3 1 -61.5746 2.69152 400.861 -61.5746 2.69152 400.861
1 1 -63.3195 2.67104 402.681 107.8 2.67104 402.681
4 1 -60.9315 3.42946 403.18 -60.9315 3.42946 403.18
9 1 -58.2581 1.14727 400.442 -58.2581 1.14727 400.442
8 1 -59.1362 3.40123 401.395 -59.1362 3.40123 401.395
10 1 -57.6402 1.91614 402.784 -57.6402 1.91614 402.784
6 1 -60.0429 1.20931 402.264 -60.0429 1.20931 402.264
11 1 -56.7739 4.13394 401.862 -56.7739 4.13394 401.862
12 1 -55.9038 1.9529 400.921 -55.9038 1.9529 400.921
16 1 -53.5096 2.65208 401.385 -53.5096 2.65208 401.385
15 1 -54.3844 0.457634 402.367 -54.3844 0.457634 402.367
14 1 -55.0372 4.18301 400.093 -55.0372 4.18301 400.093
17 1 -52.6413 0.453729 400.534 -52.6413 0.453729 400.534
13 1 -55.2517 2.66519 403.261 -55.2517 2.66519 403.261
22 1 -49.3658 3.42594 400.137 -49.3658 3.42594 400.137
20 1 -50.2577 1.20319 400.977 -50.2577 1.20319 400.977
19 1 -51.1403 3.3964 401.898 -51.1403 3.3964 401.898
18 1 -51.9974 1.18602 402.846 -51.9974 1.18602 402.846
21 1 -49.6257 1.93535 403.334 -49.6257 1.93535 403.334
23 1 -48.7499 4.15327 402.429 -48.7499 4.15327 402.429
26 1 -46.3564 0.46269 402.896 -46.3564 0.46269 402.896
24 1 -47.8902 1.93173 401.491 -47.8902 1.93173 401.491
28 1 -45.488 2.6782 402.004 -45.488 2.6782 402.004
25 1 -47.0043 4.17299 400.566 -47.0043 4.17299 400.566
29 1 -44.6109 0.444448 401.022 -44.6109 0.444448 401.022
31 1 -43.743 2.67308 400.172 -43.743 2.67308 400.172
34 1 -41.3634 3.43258 400.621 -41.3634 3.43258 400.621
32 1 -43.0992 3.40895 402.485 -43.0992 3.40895 402.485
33 1 -42.2479 1.19395 401.546 -42.2479 1.19395 401.546
30 1 -43.9781 1.19156 403.395 -43.9781 1.19156 403.395
35 1 -40.7117 4.15183 402.954 -40.7117 4.15183 402.954
40 1 -38.097 1.93363 400.233 -38.097 1.93363 400.233
37 1 -39.8445 1.93992 402.063 -39.8445 1.93992 402.063
41 1 -37.4548 2.67051 402.546 -37.4548 2.67051 402.546
38 1 -38.9667 4.13216 401.082 -38.9667 4.13216 401.082
39 1 -38.3339 0.453548 403.455 -38.3339 0.453548 403.455
43 1 -35.718 2.69393 400.683 -35.718 2.69393 400.683
42 1 -36.6031 0.455121 401.608 -36.6031 0.455121 401.608
44 1 -35.0669 3.41356 403.016 -35.0669 3.41356 403.016
46 1 -34.1995 1.20156 402.125 -34.1995 1.20156 402.125
47 1 -33.3215 3.39383 401.144 -33.3215 3.39383 401.144
49 1 -32.4518 1.1953 400.296 -32.4518 1.1953 400.296
52 1 -30.0729 1.95577 400.746 -30.0729 1.95577 400.746
50 1 -31.8097 1.93233 402.609 -31.8097 1.93233 402.609
51 1 -30.9579 4.14441 401.67 -30.9579 4.14441 401.67
53 1 -29.4218 2.67546 403.079 -29.4218 2.67546 403.079
54 1 -29.2043 4.18504 399.917 -29.2043 4.18504 399.917
48 1 -32.689 4.14287 403.517 -32.689 4.14287 403.517
58 1 -26.8067 0.457166 400.358 -26.8067 0.457166 400.358
59 1 -26.1646 1.19423 402.671 -26.1646 1.19423 402.671
56 1 -27.6764 2.6557 401.207 -27.6764 2.6557 401.207
55 1 -28.5544 0.46344 402.188 -28.5544 0.46344 402.188
60 1 -25.3128 3.4063 401.733 -25.3128 3.4063 401.733
57 1 -27.0438 3.4048 403.58 -27.0438 3.4048 403.58
61 1 -24.4279 1.21764 400.808 -24.4279 1.21764 400.808
63 1 -23.5593 3.44691 399.98 -23.5593 3.44691 399.98
62 1 -23.7766 1.93732 403.141 -23.7766 1.93732 403.141
64 1 -22.9092 4.15272 402.25 -22.9092 4.15272 402.25
65 1 -22.0313 1.91745 401.269 -22.0313 1.91745 401.269
66 1 -21.3986 2.66654 403.642 -21.3986 2.66654 403.642
70 1 -18.7826 0.479022 400.87 -18.7826 0.479022 400.87
68 1 -20.5192 0.455911 402.733 -20.5192 0.455911 402.733
69 1 -19.6678 2.66775 401.795 -19.6678 2.66775 401.795
67 1 -21.1616 4.14636 400.42 -21.1616 4.14636 400.42
72 1 -17.9153 2.70801 400.041 -17.9153 2.70801 400.041
71 1 -18.1306 1.1989 403.202 -18.1306 1.1989 403.202
75 1 -15.5182 3.40807 400.48 -15.5182 3.40807 400.48
74 1 -16.3856 1.1793 401.33 -16.3856 1.1793 401.33
73 1 -17.2642 3.41408 402.311 -17.2642 3.41408 402.311
76 1 -14.873 4.14167 402.79 -14.873 4.14167 402.79
77 1 -14.0149 1.92404 401.843 -14.0149 1.92404 401.843
348 1 -15.7501 1.92619 403.699 -15.7501 1.92619 403.699
80 1 -12.2393 1.95319 400.083 -12.2393 1.95319 400.083
81 1 -11.6235 2.68096 402.374 -11.6235 2.68096 402.374
78 1 -13.1326 4.15785 400.922 -13.1326 4.15785 400.922
79 1 -12.4997 0.463381 403.278 -12.4997 0.463381 403.278
83 1 -9.87734 2.70009 400.512 -9.87734 2.70009 400.512
82 1 -10.7637 0.458937 401.437 -10.7637 0.458937 401.437
87 1 -7.48358 3.39922 400.968 -7.48358 3.39922 400.968
84 1 -9.22936 3.41785 402.841 -9.22936 3.41785 402.841
86 1 -8.36082 1.20568 401.95 -8.36082 1.20568 401.95
89 1 -6.61558 1.20038 400.118 -6.61558 1.20038 400.118
90 1 -5.97164 1.93649 402.431 -5.97164 1.93649 402.431
88 1 -6.85066 4.1467 403.34 -6.85066 4.1467 403.34
92 1 -4.23583 1.96002 400.567 -4.23583 1.96002 400.567
93 1 -3.58403 2.67942 402.9 -3.58403 2.67942 402.9
91 1 -5.12037 4.14887 401.492 -5.12037 4.14887 401.492
96 1 -1.83906 2.65966 401.028 -1.83906 2.65966 401.028
95 1 -2.71685 0.467468 402.009 -2.71685 0.467468 402.009
98 1 -0.969305 0.461119 400.179 -0.969305 0.461119 400.179
100 1 0.524517 3.41013 401.554 0.524517 3.41013 401.554
99 1 -0.327112 1.19808 402.492 -0.327112 1.19808 402.492
97 1 -1.20625 3.40861 403.401 -1.20625 3.40861 403.401
101 1 1.40952 1.22148 400.629 1.40952 1.22148 400.629
102 1 2.06072 1.9411 402.962 2.06072 1.9411 402.962
105 1 3.80596 1.92135 401.09 3.80596 1.92135 401.09
104 1 2.92801 4.15653 402.071 2.92801 4.15653 402.071
108 1 5.31768 0.4598 402.555 5.31768 0.4598 402.555
107 1 4.6756 4.15027 400.242 4.6756 4.15027 400.242
106 1 4.43851 2.67036 403.463 4.43851 2.67036 403.463
110 1 7.05428 0.483248 400.692 7.05428 0.483248 400.692
111 1 7.70548 1.20281 403.025 7.70548 1.20281 403.025
109 1 6.16934 2.67189 401.616 6.16934 2.67189 401.616
113 1 8.57274 3.41823 402.134 8.57274 3.41823 402.134
114 1 9.45064 1.18305 401.153 9.45064 1.18305 401.153
116 1 10.3202 3.41194 400.304 10.3202 3.41194 400.304
118 1 11.814 1.93346 401.679 11.814 1.93346 401.679
117 1 10.9624 4.14886 402.617 10.9624 4.14886 402.617
121 1 13.5672 1.97401 399.925 13.5672 1.97401 399.925
120 1 13.3502 0.464284 403.087 13.3502 0.464284 403.087
119 1 12.6989 4.17223 400.754 12.6989 4.17223 400.754
115 1 10.0833 1.93201 403.526 10.0833 1.93201 403.526
122 1 14.2174 2.67965 402.196 14.2174 2.67965 402.196
123 1 15.0952 0.444431 401.215 15.0952 0.444431 401.215
125 1 15.9647 2.67329 400.366 15.9647 2.67329 400.366
126 1 16.6071 3.41011 402.679 16.6071 3.41011 402.679
127 1 17.4586 1.19463 401.74 17.4586 1.19463 401.74
124 1 15.728 1.19332 403.588 15.728 1.19332 403.588
130 1 19.2116 1.23507 399.987 19.2116 1.23507 399.987
128 1 18.3434 3.43332 400.816 18.3434 3.43332 400.816
129 1 18.995 4.15275 403.148 18.995 4.15275 403.148
131 1 19.8622 1.94058 402.257 19.8622 1.94058 402.257
132 1 20.7398 4.13267 401.276 20.7398 4.13267 401.276
133 1 21.3731 0.454016 403.649 21.3731 0.454016 403.649
134 1 21.6093 1.93405 400.427 21.6093 1.93405 400.427
136 1 23.1033 0.454911 401.801 23.1033 0.454911 401.801
135 1 22.2522 2.6707 402.74 22.2522 2.6707 402.74
139 1 24.8553 0.494881 400.046 24.8553 0.494881 400.046
137 1 23.9883 2.69345 400.876 23.9883 2.69345 400.876
138 1 24.6409 3.41308 403.208 24.6409 3.41308 403.208
141 1 26.3853 3.39313 401.335 26.3853 3.39313 401.335
140 1 25.5071 1.20063 402.316 25.5071 1.20063 402.316
142 1 27.2525 1.19433 400.485 27.2525 1.19433 400.485
143 1 27.8985 1.92751 402.795 27.8985 1.92751 402.795
144 1 28.7563 4.13706 401.847 28.7563 4.13706 401.847
145 1 29.6384 1.94316 400.926 29.6384 1.94316 400.926
147 1 30.5314 4.16581 400.086 30.5314 4.16581 400.086
146 1 30.2721 2.67593 403.282 30.2721 2.67593 403.282
150 1 32.8937 0.484382 400.514 32.8937 0.484382 400.514
148 1 31.1481 0.465798 402.377 31.1481 0.465798 402.377
149 1 32.0076 2.67097 401.439 32.0076 2.67097 401.439
153 1 34.4109 3.41705 401.951 34.4109 3.41705 401.951
151 1 33.5426 1.20199 402.843 33.5426 1.20199 402.843
156 1 36.1557 3.41136 400.119 36.1557 3.41136 400.119
154 1 35.2878 1.18287 400.969 35.2878 1.18287 400.969
157 1 36.8007 4.14707 402.432 36.8007 4.14707 402.432
155 1 35.9218 1.93006 403.341 35.9218 1.93006 403.341
158 1 37.6517 1.93165 401.492 37.6517 1.93165 401.492
159 1 38.5361 4.16994 400.567 38.5361 4.16994 400.567
162 1 40.0558 2.6771 402.008 40.0558 2.6771 402.008
160 1 39.1888 0.461849 402.899 39.1888 0.461849 402.899
163 1 40.9333 0.441532 401.027 40.9333 0.441532 401.027
165 1 41.803 2.67033 400.178 41.803 2.67033 400.178
164 1 41.5673 1.19028 403.399 41.5673 1.19028 403.399
168 1 44.1826 3.42971 400.626 44.1826 3.42971 400.626
167 1 43.2977 1.19121 401.551 43.2977 1.19121 401.551
166 1 42.4463 3.40696 402.49 42.4463 3.40696 402.49
169 1 44.8348 4.14941 402.958 44.8348 4.14941 402.958
171 1 45.702 1.93715 402.067 45.702 1.93715 402.067
174 1 47.4493 1.93049 400.237 47.4493 1.93049 400.237
175 1 48.0925 2.66728 402.55 48.0925 2.66728 402.55
172 1 46.5797 4.12912 401.086 46.5797 4.12912 401.086
173 1 47.2134 0.450606 403.459 47.2134 0.450606 403.459
177 1 49.8289 2.69013 400.686 49.8289 2.69013 400.686
176 1 48.944 0.451588 401.611 48.944 0.451588 401.611
179 1 50.6976 0.491868 399.857 50.6976 0.491868 399.857
181 1 52.226 3.38968 401.146 52.226 3.38968 401.146
178 1 50.481 3.40991 403.018 50.481 3.40991 403.018
180 1 51.3483 1.19768 402.127 51.3483 1.19768 402.127
183 1 53.0956 1.19107 400.297 53.0956 1.19107 400.297
184 1 53.7388 1.92795 402.61 53.7388 1.92795 402.61
186 1 55.4752 1.95087 400.746 55.4752 1.95087 400.746
187 1 56.1273 2.67071 403.079 56.1273 2.67071 403.079
188 1 56.3439 4.18008 399.918 56.3439 4.18008 399.918
185 1 54.5903 4.13975 401.671 54.5903 4.13975 401.671
182 1 52.8597 4.13871 403.519 52.8597 4.13871 403.519
189 1 56.9946 0.458496 402.188 56.9946 0.458496 402.188
192 1 58.7419 0.451922 400.358 58.7419 0.451922 400.358
194 1 60.2366 3.4007 401.731 60.2366 3.4007 401.731
193 1 59.385 1.18888 402.67 59.385 1.18888 402.67
190 1 57.8723 2.65052 401.207 57.8723 2.65052 401.207
191 1 58.5059 3.39963 403.579 58.5059 3.39963 403.579
195 1 61.1215 1.21185 400.807 61.1215 1.21185 400.807
197 1 61.9901 3.44106 399.978 61.9901 3.44106 399.978
199 1 63.5185 1.91155 401.267 63.5185 1.91155 401.267
196 1 61.7736 1.93172 403.139 61.7736 1.93172 403.139
198 1 62.6408 4.14697 402.248 62.6408 4.14697 402.248
200 1 64.1522 2.66071 403.639 64.1522 2.66071 403.639
202 1 65.0312 0.449953 402.731 65.0312 0.449953 402.731
201 1 64.3881 4.14041 400.418 64.3881 4.14041 400.418
206 1 67.6362 2.70216 400.038 67.6362 2.70216 400.038
204 1 66.7676 0.472935 400.867 66.7676 0.472935 400.867
203 1 65.8828 2.66179 401.792 65.8828 2.66179 401.792
205 1 67.4198 1.19279 403.199 67.4198 1.19279 403.199
207 1 68.287 3.40803 402.308 68.287 3.40803 402.308
209 1 70.0342 3.4014 400.478 70.0342 3.4014 400.478
208 1 69.1646 1.17254 401.327 69.1646 1.17254 401.327
211 1 71.5288 1.92253 401.851 71.5288 1.92253 401.851
210 1 70.6777 4.13836 402.79 70.6777 4.13836 402.79
212 1 72.4139 4.16107 400.927 72.4139 4.16107 400.927
214 1 73.2812 1.96256 400.097 73.2812 1.96256 400.097
217 1 75.6787 2.66242 400.536 75.6787 2.66242 400.536
216 1 74.8114 0.433715 401.385 74.8114 0.433715 401.385
215 1 73.933 2.66871 402.367 73.933 2.66871 402.367
213 1 73.0668 0.45369 403.258 73.0668 0.45369 403.258
218 1 76.3248 3.39602 402.845 76.3248 3.39602 402.845
220 1 78.0649 3.41182 400.977 78.0649 3.41182 400.977
219 1 77.1827 1.17817 401.898 77.1827 1.17817 401.898
222 1 78.9582 1.20712 400.137 78.9582 1.20712 400.137
223 1 79.5747 1.93487 402.428 79.5747 1.93487 402.428
221 1 78.6987 4.14494 403.332 78.6987 4.14494 403.332
224 1 80.4343 4.14008 401.49 80.4343 4.14008 401.49
225 1 81.3206 1.95363 400.566 81.3206 1.95363 400.566
229 1 83.7147 2.65257 401.021 83.7147 2.65257 401.021
228 1 82.8377 0.459221 402.003 82.8377 0.459221 402.003
226 1 81.9693 2.67155 402.895 81.9693 2.67155 402.895
231 1 84.5826 0.453667 400.171 84.5826 0.453667 400.171
234 1 86.9627 1.21288 400.619 86.9627 1.21288 400.619
233 1 86.0783 3.40191 401.544 86.0783 3.40191 401.544
235 1 87.6152 1.93242 402.952 87.6152 1.93242 402.952
232 1 85.2273 1.18975 402.483 85.2273 1.18975 402.483
230 1 84.3485 3.40015 403.393 84.3485 3.40015 403.393
241 1 90.8721 0.450518 402.543 90.8721 0.450518 402.543
238 1 89.3597 1.91224 401.079 89.3597 1.91224 401.079
240 1 90.2293 4.14105 400.23 90.2293 4.14105 400.23
237 1 88.4822 4.14771 402.06 88.4822 4.14771 402.06
239 1 89.9933 2.66132 403.452 89.9933 2.66132 403.452
242 1 91.7234 2.66231 401.605 91.7234 2.66231 401.605
243 1 92.6081 0.473427 400.68 92.6081 0.473427 400.68
247 1 95.0043 1.17259 401.141 95.0043 1.17259 401.141
246 1 94.1268 3.40817 402.122 94.1268 3.40817 402.122
244 1 93.26 1.19312 403.013 93.26 1.19312 403.013
254 1 99.1181 1.96081 399.914 99.1181 1.96081 399.914
249 1 95.8739 3.40127 400.292 95.8739 3.40127 400.292
253 1 98.9041 0.453411 403.075 98.9041 0.453411 403.075
251 1 97.3669 1.92211 401.667 97.3669 1.92211 401.667
252 1 98.2517 4.15996 400.743 98.2517 4.15996 400.743
250 1 96.5162 4.13829 402.606 96.5162 4.13829 402.606
248 1 95.6376 1.9221 403.514 95.6376 1.9221 403.514
258 1 101.514 2.65592 400.355 101.514 2.65592 400.355
255 1 99.7696 2.66715 402.185 99.7696 2.66715 402.185
259 1 102.155 3.40275 402.674 102.155 3.40275 402.674
260 1 103.002 1.18814 401.747 103.002 1.18814 401.747
256 1 100.648 0.430003 401.204 100.648 0.430003 401.204
257 1 101.28 1.18682 403.581 101.28 1.18682 403.581
263 1 104.716 1.21556 399.999 104.716 1.21556 399.999
261 1 103.871 3.42612 400.817 103.871 3.42612 400.817
264 1 105.436 1.9343 402.217 105.436 1.9343 402.217
265 1 106.285 4.13048 401.265 106.285 4.13048 401.265
262 1 104.557 4.14841 403.128 104.557 4.14841 403.128
266 1 106.94 0.44779 403.625 106.94 0.44779 403.625
268 1 -62.664 3.40825 405.049 -62.664 3.40825 405.049
271 1 -61.1505 1.93261 406.488 -61.1505 1.93261 406.488
270 1 -61.7983 1.20436 404.108 -61.7983 1.20436 404.108
267 1 -63.5315 1.19012 405.99 -63.5315 1.19012 405.99
272 1 -60.2835 4.15241 405.556 -60.2835 4.15241 405.556
269 1 -62.0195 4.141 407.425 -62.0195 4.141 407.425
277 1 -57.8892 0.458441 406.064 -57.8892 0.458441 406.064
274 1 -59.41 1.94138 404.623 -59.41 1.94138 404.623
278 1 -57.0089 2.66777 405.132 -57.0089 2.66777 405.132
275 1 -58.7627 2.67082 406.991 -58.7627 2.67082 406.991
276 1 -58.5295 4.14997 403.713 -58.5295 4.14997 403.713
279 1 -56.3716 3.40305 407.495 -56.3716 3.40305 407.495
280 1 -56.1327 0.450462 404.207 -56.1327 0.450462 404.207
286 1 -52.8746 3.39661 403.756 -52.8746 3.39661 403.756
282 1 -54.6193 3.40001 405.631 -54.6193 3.40001 405.631
284 1 -53.7442 1.18811 404.708 -53.7442 1.18811 404.708
281 1 -55.4963 1.18822 406.567 -55.4963 1.18822 406.567
285 1 -53.1075 1.92395 407.07 -53.1075 1.92395 407.07
291 1 -49.8494 0.451438 406.635 -49.8494 0.451438 406.635
288 1 -51.3619 1.92798 405.204 -51.3619 1.92798 405.204
292 1 -48.9781 2.66951 405.702 -48.9781 2.66951 405.702
287 1 -52.235 4.13732 406.133 -52.235 4.13732 406.133
290 1 -50.4947 4.14191 404.266 -50.4947 4.14191 404.266
294 1 -48.1045 0.460232 404.771 -48.1045 0.460232 404.771
297 1 -46.5913 3.40628 406.203 -46.5913 3.40628 406.203
296 1 -47.2364 2.67349 403.838 -47.2364 2.67349 403.838
298 1 -45.7187 1.1945 405.267 -45.7187 1.1945 405.267
295 1 -47.4625 1.19056 407.136 -47.4625 1.19056 407.136
300 1 -44.8458 3.41072 404.343 -44.8458 3.41072 404.343
306 1 -41.5901 1.93309 403.899 -41.5901 1.93309 403.899
302 1 -43.3313 1.92972 405.765 -43.3313 1.92972 405.765
304 1 -42.4558 4.1474 404.834 -42.4558 4.1474 404.834
301 1 -44.2022 4.14302 406.702 -44.2022 4.14302 406.702
305 1 -41.8152 0.451668 407.199 -41.8152 0.451668 407.199
307 1 -40.9448 2.66691 406.266 -40.9448 2.66691 406.266
310 1 -39.2012 2.67256 404.404 -39.2012 2.67256 404.404
312 1 -37.6863 1.19177 405.826 -37.6863 1.19177 405.826
311 1 -38.5565 3.40461 406.764 -38.5565 3.40461 406.764
308 1 -40.0725 0.455617 405.328 -40.0725 0.455617 405.328
313 1 -36.8113 3.40953 404.895 -36.8113 3.40953 404.895
315 1 -35.9455 1.19505 403.96 -35.9455 1.19505 403.96
316 1 -35.2999 1.92911 406.328 -35.2999 1.92911 406.328
317 1 -34.4277 4.14518 405.39 -34.4277 4.14518 405.39
314 1 -36.1701 4.14122 407.261 -36.1701 4.14122 407.261
319 1 -33.5563 1.93453 404.466 -33.5563 1.93453 404.466
320 1 -32.9116 2.66679 406.826 -32.9116 2.66679 406.826
324 1 -30.3005 0.456991 404.023 -30.3005 0.456991 404.023
321 1 -32.0413 0.453869 405.888 -32.0413 0.453869 405.888
322 1 -31.1663 2.67153 404.957 -31.1663 2.67153 404.957
323 1 -30.525 3.40336 407.323 -30.525 3.40336 407.323
325 1 -29.6548 1.19119 406.39 -29.6548 1.19119 406.39
328 1 -27.9112 1.1965 404.528 -27.9112 1.1965 404.528
326 1 -28.7826 3.4072 405.452 -28.7826 3.4072 405.452
329 1 -27.2664 1.92884 406.889 -27.2664 1.92884 406.889
330 1 -26.3961 4.14332 405.951 -26.3961 4.14332 405.951
331 1 -25.5211 1.93349 405.02 -25.5211 1.93349 405.02
337 1 -22.2658 0.458336 404.591 -22.2658 0.458336 404.591
334 1 -24.0095 0.453127 406.453 -24.0095 0.453127 406.453
335 1 -23.1373 2.66908 405.515 -23.1373 2.66908 405.515
333 1 -24.6552 4.14636 404.085 -24.6552 4.14636 404.085
338 1 -21.621 1.19063 406.951 -21.621 1.19063 406.951
332 1 -24.8798 2.66535 407.386 -24.8798 2.66535 407.386
340 1 -19.8754 1.19516 405.082 -19.8754 1.19516 405.082
342 1 -19.0098 3.4079 404.147 -19.0098 3.4079 404.147
339 1 -20.7507 3.40503 406.013 -20.7507 3.40503 406.013
344 1 -17.491 1.92988 405.575 -17.491 1.92988 405.575
343 1 -18.3641 4.14167 406.514 -18.3641 4.14167 406.514
341 1 -19.2343 1.92672 407.448 -19.2343 1.92672 407.448
347 1 -15.9782 0.452344 407.015 -15.9782 0.452344 407.015
349 1 -15.1077 2.66681 406.077 -15.1077 2.66681 406.077
346 1 -16.6201 4.14604 404.651 -16.6201 4.14604 404.651
350 1 -14.2358 0.457134 405.148 -14.2358 0.457134 405.148
351 1 -13.5924 1.19162 407.514 -13.5924 1.19162 407.514
353 1 -12.7218 3.40772 406.58 -12.7218 3.40772 406.58
352 1 -13.3686 2.67049 404.21 -13.3686 2.67049 404.21
354 1 -11.851 1.19808 405.646 -11.851 1.19808 405.646
356 1 -10.9774 3.41596 404.716 -10.9774 3.41596 404.716
358 1 -10.1095 1.20142 403.783 -10.1095 1.20142 403.783
357 1 -10.3346 4.14647 407.081 -10.3346 4.14647 407.081
363 1 -7.07427 2.67111 406.648 -7.07427 2.67111 406.648
359 1 -9.46371 1.93456 406.149 -9.46371 1.93456 406.149
362 1 -7.71833 1.93859 404.289 -7.71833 1.93859 404.289
360 1 -8.59119 4.15004 405.212 -8.59119 4.15004 405.212
364 1 -6.20354 0.457675 405.71 -6.20354 0.457675 405.71
368 1 -4.46245 0.460775 403.844 -4.46245 0.460775 403.844
366 1 -5.32811 2.6752 404.779 -5.32811 2.6752 404.779
369 1 -3.81685 1.19476 406.212 -3.81685 1.19476 406.212
367 1 -4.68722 3.40708 407.145 -4.68722 3.40708 407.145
370 1 -2.94467 3.41082 405.274 -2.94467 3.41082 405.274
372 1 -2.07345 1.20023 404.35 -2.07345 1.20023 404.35
376 1 0.316445 1.93716 404.841 0.316445 1.93716 404.841
373 1 -1.42857 1.93238 406.71 -1.42857 1.93238 406.71
374 1 -0.558425 4.14692 405.772 -0.558425 4.14692 405.772
379 1 1.82791 0.456729 406.274 1.82791 0.456729 406.274
378 1 1.18213 4.15008 403.906 1.18213 4.15008 403.906
377 1 0.957825 2.6689 407.207 0.957825 2.6689 407.207
383 1 4.21616 1.19431 406.772 4.21616 1.19431 406.772
380 1 2.69996 2.67274 405.336 2.69996 2.67274 405.336
382 1 3.57124 0.462048 404.412 3.57124 0.462048 404.412
384 1 5.08629 3.40879 405.835 5.08629 3.40879 405.835
385 1 5.96118 1.19895 404.903 5.96118 1.19895 404.903
387 1 6.8269 3.41183 403.969 6.8269 3.41183 403.969
388 1 7.47268 4.14597 406.336 7.47268 4.14597 406.336
386 1 6.6026 1.93075 407.27 6.6026 1.93075 407.27
389 1 8.34473 1.93447 405.399 8.34473 1.93447 405.399
391 1 9.21601 4.15118 404.474 9.21601 4.15118 404.474
392 1 9.86099 0.456 406.835 9.86099 0.456 406.835
393 1 10.7311 2.67042 405.897 10.7311 2.67042 405.897
394 1 11.606 0.46053 404.966 11.606 0.46053 404.966
396 1 12.4717 2.67336 404.031 12.4717 2.67336 404.031
397 1 13.1176 3.40747 406.399 13.1176 3.40747 406.399
395 1 12.2475 1.19231 407.332 12.2475 1.19231 407.332
398 1 13.9896 1.19591 405.461 13.9896 1.19591 405.461
400 1 14.8608 3.41256 404.536 14.8608 3.41256 404.536
401 1 15.506 4.14478 406.897 15.506 4.14478 406.897
402 1 16.3761 1.93168 405.959 16.3761 1.93168 405.959
403 1 17.2509 4.14917 405.028 17.2509 4.14917 405.028
405 1 18.1166 1.93447 404.093 18.1166 1.93447 404.093
406 1 18.7627 2.6685 406.46 18.7627 2.6685 406.46
409 1 20.506 2.67341 404.597 20.506 2.67341 404.597
410 1 21.1513 3.40549 406.958 21.1513 3.40549 406.958
407 1 19.6347 0.456847 405.522 19.6347 0.456847 405.522
404 1 17.8926 0.45342 407.394 17.8926 0.45342 407.394
412 1 22.8965 3.40968 405.088 22.8965 3.40968 405.088
411 1 22.0214 1.19227 406.02 22.0214 1.19227 406.02
415 1 24.4082 1.9283 406.52 24.4082 1.9283 406.52
414 1 23.7619 1.1948 404.153 23.7619 1.1948 404.153
416 1 25.2811 4.14377 405.581 25.2811 4.14377 405.581
413 1 23.5382 4.14099 407.454 23.5382 4.14099 407.454
418 1 26.1518 1.93229 404.656 26.1518 1.93229 404.656
419 1 26.7944 2.66575 407.02 26.7944 2.66575 407.02
420 1 27.0216 4.13968 403.704 27.0216 4.13968 403.704
421 1 27.6647 0.452555 406.081 27.6647 0.452555 406.081
422 1 28.5364 2.67013 405.152 28.5364 2.67013 405.152
424 1 29.4034 0.455805 404.214 29.4034 0.455805 404.214
426 1 30.9215 3.41035 405.649 30.9215 3.41035 405.649
425 1 30.0509 1.19274 406.583 30.0509 1.19274 406.583
430 1 32.6627 3.41323 403.785 32.6627 3.41323 403.785
428 1 31.7949 1.20055 404.719 31.7949 1.20055 404.719
429 1 32.4385 1.93075 407.083 32.4385 1.93075 407.083
432 1 34.1817 1.93388 405.213 34.1817 1.93388 405.213
431 1 33.3093 4.14607 406.15 33.3093 4.14607 406.15
435 1 35.6993 0.454422 406.648 35.6993 0.454422 406.648
436 1 36.5698 2.66822 405.711 36.5698 2.66822 405.711
434 1 35.0543 4.14967 404.29 35.0543 4.14967 404.29
440 1 38.3106 2.67087 403.844 38.3106 2.67087 403.844
438 1 37.4451 0.458083 404.779 37.4451 0.458083 404.779
439 1 38.0869 1.18964 407.144 38.0869 1.18964 407.144
442 1 39.8292 1.19298 405.272 39.8292 1.19298 405.272
441 1 38.9571 3.40457 406.211 38.9571 3.40457 406.211
444 1 40.7002 3.40963 404.348 40.7002 3.40963 404.348
446 1 42.2161 1.92839 405.77 42.2161 1.92839 405.77
445 1 41.346 4.1415 406.708 41.346 4.1415 406.708
450 1 43.9563 1.93113 403.903 43.9563 1.93113 403.903
451 1 44.6031 2.66502 406.27 44.6031 2.66502 406.27
448 1 43.0908 4.14588 404.838 43.0908 4.14588 404.838
449 1 43.7331 0.449914 407.204 43.7331 0.449914 407.204
452 1 45.475 0.453419 405.332 45.475 0.453419 405.332
454 1 46.3462 2.66999 404.407 46.3462 2.66999 404.407
457 1 48.7369 3.40638 404.898 48.7369 3.40638 404.898
455 1 46.9921 3.40206 406.767 46.9921 3.40206 406.767
456 1 47.8621 1.18892 405.829 47.8621 1.18892 405.829
459 1 49.6025 1.19162 403.963 49.6025 1.19162 403.963
458 1 49.3792 4.13803 407.263 49.3792 4.13803 407.263
460 1 50.2492 1.92567 406.33 50.2492 1.92567 406.33
463 1 51.9925 1.93063 404.467 51.9925 1.93063 404.467
461 1 51.1212 4.14151 405.392 51.1212 4.14151 405.392
464 1 52.6383 2.66283 406.827 52.6383 2.66283 406.827
465 1 53.5083 0.449688 405.889 53.5083 0.449688 405.889
468 1 55.2488 0.452406 404.023 55.2488 0.452406 404.023
466 1 54.3832 2.66716 404.958 54.3832 2.66716 404.958
469 1 55.8955 1.18656 406.39 55.8955 1.18656 406.39
467 1 55.0255 3.39892 407.323 55.0255 3.39892 407.323
470 1 56.7675 3.4024 405.452 56.7675 3.4024 405.452
472 1 57.6387 1.19153 404.528 57.6387 1.19153 404.528
475 1 60.0294 1.92816 405.018 60.0294 1.92816 405.018
473 1 58.2845 1.92383 406.887 58.2845 1.92383 406.887
474 1 59.1546 4.13814 405.95 59.1546 4.13814 405.95
477 1 60.895 4.14087 404.083 60.895 4.14087 404.083
481 1 63.285 0.452616 404.588 63.285 0.452616 404.588
478 1 61.5417 0.447657 406.45 61.5417 0.447657 406.45
479 1 62.4138 2.66349 405.512 62.4138 2.66349 405.512
482 1 63.9308 1.18499 406.948 63.9308 1.18499 406.948
476 1 60.6717 2.66002 407.384 60.6717 2.66002 407.384
483 1 64.8009 3.39929 406.01 64.8009 3.39929 406.01
486 1 66.5413 3.40198 404.143 66.5413 3.40198 404.143
488 1 68.0601 1.92461 405.573 68.0601 1.92461 405.573
484 1 65.6757 1.18929 405.078 65.6757 1.18929 405.078
487 1 67.1881 4.13627 406.51 67.1881 4.13627 406.51
485 1 66.318 1.9212 407.444 66.318 1.9212 407.444
490 1 68.9314 4.14116 404.648 68.9314 4.14116 404.648
493 1 70.4473 2.6603 406.07 70.4473 2.6603 406.07
491 1 69.5772 0.446073 407.008 69.5772 0.446073 407.008
494 1 71.3223 0.45027 405.138 71.3223 0.45027 405.138
492 1 69.7985 1.92171 403.699 69.7985 1.92171 403.699
496 1 72.1877 2.66284 404.203 72.1877 2.66284 404.203
497 1 72.8344 3.39671 406.57 72.8344 3.39671 406.57
500 1 74.5781 3.40076 404.706 74.5781 3.40076 404.706
498 1 73.7073 1.18475 405.631 73.7073 1.18475 405.631
502 1 75.4479 1.1807 403.754 75.4479 1.1807 403.754
501 1 75.221 4.13462 407.07 75.221 4.13462 407.07
503 1 76.0913 1.92145 406.131 76.0913 1.92145 406.131
506 1 77.83 1.92476 404.265 77.83 1.92476 404.265
507 1 78.4777 2.66216 406.633 78.4777 2.66216 406.633
504 1 76.9629 4.13905 405.203 76.9629 4.13905 405.203
508 1 79.3482 0.452345 405.7 79.3482 0.452345 405.7
510 1 80.2216 2.67004 404.77 80.2216 2.67004 404.77
512 1 81.0894 0.455294 403.836 81.0894 0.455294 403.836
514 1 82.6084 3.40392 405.265 82.6084 3.40392 405.265
516 1 83.481 1.19227 404.341 83.481 1.19227 404.341
513 1 81.7361 1.18865 406.201 81.7361 1.18865 406.201
511 1 80.8654 3.40077 407.134 80.8654 3.40077 407.134
517 1 84.126 1.92507 406.7 84.126 1.92507 406.7
523 1 87.3837 0.448366 406.263 87.3837 0.448366 406.263
520 1 85.8717 1.92867 404.831 85.8717 1.92867 404.831
518 1 84.9965 4.13884 405.762 84.9965 4.13884 405.762
522 1 86.737 4.14145 403.896 86.737 4.14145 403.896
521 1 86.5136 2.66096 407.196 86.5136 2.66096 407.196
526 1 89.1264 0.453254 404.401 89.1264 0.453254 404.401
528 1 90.6422 3.40019 405.823 90.6422 3.40019 405.823
524 1 88.2555 2.66414 405.325 88.2555 2.66414 405.325
529 1 91.5167 1.19003 404.892 91.5167 1.19003 404.892
527 1 89.7725 1.18601 406.761 89.7725 1.18601 406.761
536 1 95.4183 0.448457 406.822 95.4183 0.448457 406.822
531 1 92.3819 3.40255 403.957 92.3819 3.40255 403.957
533 1 93.9006 1.92571 405.387 93.9006 1.92571 405.387
532 1 93.0291 4.13765 406.324 93.0291 4.13765 406.324
535 1 94.7712 4.1419 404.462 94.7712 4.1419 404.462
530 1 92.1596 1.92279 407.257 92.1596 1.92279 407.257
538 1 97.1618 0.451818 404.954 97.1618 0.451818 404.954
541 1 98.6752 3.40166 406.386 98.6752 3.40166 406.386
540 1 98.0263 2.66372 404.019 98.0263 2.66372 404.019
537 1 96.2877 2.66237 405.885 96.2877 2.66237 405.885
539 1 97.8062 1.18662 407.319 97.8062 1.18662 407.319
546 1 101.94 1.9283 405.94 101.94 1.9283 405.94
544 1 100.415 3.40623 404.526 100.415 3.40623 404.526
542 1 99.5461 1.18994 405.449 99.5461 1.18994 405.449
547 1 102.814 4.14596 405.009 102.814 4.14596 405.009
545 1 101.069 4.14106 406.879 101.069 4.14106 406.879
553 1 106.072 2.66677 404.563 106.072 2.66677 404.563
550 1 104.33 2.66339 406.435 104.33 2.66339 406.435
554 1 106.718 3.40117 406.928 106.718 3.40117 406.928
549 1 103.686 1.93147 404.069 103.686 1.93147 404.069
551 1 105.202 0.451346 405.496 105.202 0.451346 405.496
548 1 103.459 0.448736 407.371 103.459 0.448736 407.371
560 1 -61.3741 0.446014 409.796 -61.3741 0.446014 409.796
558 1 -62.8886 1.9235 408.361 -62.8886 1.9235 408.361
562 1 -60.5038 2.6634 408.86 -60.5038 2.6634 408.86
559 1 -62.2445 2.65662 410.731 -62.2445 2.65662 410.731
556 1 -63.7593 4.13433 409.297 -63.7593 4.13433 409.297
273 1 -59.6343 0.453757 407.926 -59.6343 0.453757 407.926
565 1 -58.1175 3.40097 409.36 -58.1175 3.40097 409.36
568 1 -56.6015 1.92147 410.796 -56.6015 1.92147 410.796
567 1 -57.2458 1.18944 408.428 -57.2458 1.18944 408.428
564 1 -58.9884 1.18445 410.295 -58.9884 1.18445 410.295
563 1 -59.8588 3.39511 411.229 -59.8588 3.39511 411.229
573 1 -53.3408 0.445233 410.365 -53.3408 0.445233 410.365
571 1 -54.8564 1.92374 408.932 -54.8564 1.92374 408.932
283 1 -53.9821 4.13704 407.999 -53.9821 4.13704 407.999
569 1 -55.7294 4.13669 409.862 -55.7294 4.13669 409.862
574 1 -52.4674 2.65997 409.434 -52.4674 2.65997 409.434
572 1 -54.2136 2.65795 411.298 -54.2136 2.65795 411.298
576 1 -51.5941 0.446862 408.501 -51.5941 0.446862 408.501
578 1 -50.0794 3.3974 409.935 -50.0794 3.3974 409.935
289 1 -50.7209 2.66297 407.57 -50.7209 2.66297 407.57
580 1 -49.2069 1.18537 409.002 -49.2069 1.18537 409.002
577 1 -50.9524 1.18208 410.867 -50.9524 1.18208 410.867
293 1 -48.3348 3.40161 408.069 -48.3348 3.40161 408.069
299 1 -45.075 1.92692 407.634 -45.075 1.92692 407.634
583 1 -46.8193 1.923 409.501 -46.8193 1.923 409.501
585 1 -45.9471 4.13877 408.568 -45.9471 4.13877 408.568
582 1 -47.6916 4.13476 410.434 -47.6916 4.13476 410.434
586 1 -45.304 0.444158 410.933 -45.304 0.444158 410.933
589 1 -43.5596 0.447921 409.067 -43.5596 0.447921 409.067
591 1 -42.0444 3.3963 410.498 -42.0444 3.3963 410.498
303 1 -42.688 2.6631 408.132 -42.688 2.6631 408.132
587 1 -44.4319 2.65966 410 -44.4319 2.65966 410
592 1 -41.1722 1.18449 409.565 -41.1722 1.18449 409.565
309 1 -39.4286 1.18827 407.696 -39.4286 1.18827 407.696