ITEM: TIMESTEP
0
ITEM: NUMBER OF ATOMS
4630
ITEM: BOX BOUNDS xy xz yz pp pp pp
-6.3373144841991390e+01 1.0639217669019139e+02 0.0000000000000000e+00
0.0000000000000000e+00 4.4274527100805940e+00 0.0000000000000000e+00
3.8000000000000000e+02 5.0000000000000000e+02 0.0000000000000000e+00
ITEM: ATOMS id type x y z xu yu zu
27 1 -45.6349 2.11791 399.535 -45.6349 2.11791 399.535
36 1 -40.0277 1.37636 399.593 -40.0277 1.37636 399.593
31 1 -43.2431 2.81249 399.974 -43.2431 2.81249 399.974
22 1 -48.8332 3.56446 399.942 -48.8332 3.56446 399.942
20 1 -49.7098 1.34267 400.789 -49.7098 1.34267 400.789
40 1 -37.6381 2.07232 400.035 -37.6381 2.07232 400.035
34 1 -40.8817 3.57474 400.429 -40.8817 3.57474 400.429
17 1 -52.0752 0.591792 400.341 -52.0752 0.591792 400.341
9 1 -57.6471 1.2823 400.253 -57.6471 1.2823 400.253
43 1 -35.2777 2.83533 400.49 -35.2777 2.83533 400.49
12 1 -55.3132 2.09394 400.736 -55.3132 2.09394 400.736
5 1 -60.0305 0.609064 399.791 -60.0305 0.609064 399.791
29 1 -44.1047 0.583767 400.829 -44.1047 0.583767 400.829
853 1 -57.0799 2.73311 414.92 -57.0799 2.73311 414.92
873 1 -45.8755 1.25736 415.047 -45.8755 1.25736 415.047
865 1 -49.9741 0.51178 416.423 -49.9741 0.51178 416.423
1174 1 -37.2635 1.97661 417.988 -37.2635 1.97661 417.988
883 1 -40.2723 0.518138 415.11 -40.2723 0.518138 415.11
863 1 -51.4791 1.99625 414.983 -51.4791 1.99625 414.983
315 1 -35.5025 1.32194 403.783 -35.5025 1.32194 403.783
307 1 -40.4635 2.78554 406.1 -40.4635 2.78554 406.1
1150 1 -51.7021 0.500145 418.301 -51.7021 0.500145 418.301
855 1 -55.5753 1.24895 416.36 -55.5753 1.24895 416.36
310 1 -38.7344 2.79777 404.227 -38.7344 2.79777 404.227
871 1 -46.7402 3.4657 415.986 -46.7402 3.4657 415.986
16 1 -52.9351 2.79022 401.198 -52.9351 2.79022 401.198
309 1 -38.9581 1.30101 407.537 -38.9581 1.30101 407.537
1156 1 -48.4691 3.45466 417.863 -48.4691 3.45466 417.863
867 1 -49.1097 2.7311 415.485 -49.1097 2.7311 415.485
1159 1 -46.0999 4.18935 418.364 -46.0999 4.18935 418.364
1168 1 -40.4971 3.45026 418.426 -40.4971 3.45026 418.426
1170 1 -39.6325 1.24194 417.488 -39.6325 1.24194 417.488
594 1 -39.8227 3.50923 408.477 -39.8227 3.50923 408.477
37 1 -39.3737 2.0735 401.873 -39.3737 2.0735 401.873
851 1 -57.9434 0.513266 415.86 -57.9434 0.513266 415.86
857 1 -54.7117 3.46875 415.421 -54.7117 3.46875 415.421
592 1 -40.6871 1.29002 409.416 -40.6871 1.29002 409.416
849 1 -58.807 2.72092 416.799 -58.807 2.72092 416.799
877 1 -43.5061 1.99187 415.548 -43.5061 1.99187 415.548
1143 1 -56.4389 3.45659 417.3 -56.4389 3.45659 417.3
1140 1 -58.1662 3.44448 419.179 -58.1662 3.44448 419.179
845 1 -61.175 1.98531 416.299 -61.175 1.98531 416.299
875 1 -44.3708 4.20022 416.487 -44.3708 4.20022 416.487
886 1 -38.543 0.529042 413.233 -38.543 0.529042 413.233
891 1 -35.3095 3.48293 412.794 -35.3095 3.48293 412.794
39 1 -37.8742 0.583215 403.276 -37.8742 0.583215 403.276
1177 1 -35.7591 0.492156 419.428 -35.7591 0.492156 419.428
1167 1 -41.3616 1.23112 419.365 -41.3616 1.23112 419.365
8 1 -58.5221 3.53791 401.211 -58.5221 3.53791 401.211
869 1 -47.6048 1.24652 416.924 -47.6048 1.24652 416.924
1136 1 -60.5343 2.70888 418.678 -60.5343 2.70888 418.678
1162 1 -44.5952 2.70475 419.803 -44.5952 2.70475 419.803
15 1 -53.8039 0.59038 402.184 -53.8039 0.59038 402.184
280 1 -55.5363 0.577335 404.039 -55.5363 0.577335 404.039
277 1 -57.2765 0.577754 405.906 -57.2765 0.577754 405.906
273 1 -59.0048 0.565703 407.78 -59.0048 0.565703 407.78
560 1 -60.7298 0.551263 409.661 -60.7298 0.551263 409.661
557 1 -62.4564 0.538348 411.541 -62.4564 0.538348 411.541
26 1 -45.8369 0.594254 402.714 -45.8369 0.594254 402.714
294 1 -47.5699 0.584902 404.6 -47.5699 0.584902 404.6
291 1 -49.2995 0.569398 406.476 -49.2995 0.569398 406.476
576 1 -51.029 0.557268 408.352 -51.029 0.557268 408.352
573 1 -52.7599 0.547844 410.227 -52.7599 0.547844 410.227
570 1 -54.489 0.537399 412.103 -54.489 0.537399 412.103
854 1 -56.2163 0.525492 413.981 -56.2163 0.525492 413.981
305 1 -41.3269 0.566641 407.038 -41.3269 0.566641 407.038
589 1 -43.0563 0.555532 408.916 -43.0563 0.555532 408.916
586 1 -44.7858 0.544395 410.793 -44.7858 0.544395 410.793
872 1 -46.5154 0.533517 412.67 -46.5154 0.533517 412.67
599 1 -36.8138 0.54005 411.355 -36.8138 0.54005 411.355
1132 1 -62.9024 1.97339 418.179 -62.9024 1.97339 418.179
4 1 -60.2974 3.56049 403.01 -60.2974 3.56049 403.01
268 1 -62.0127 3.53309 404.893 -62.0127 3.53309 404.893
1152 1 -50.8382 2.71975 417.362 -50.8382 2.71975 417.362
19 1 -50.5849 3.5335 401.719 -50.5849 3.5335 401.719
286 1 -52.3046 3.52541 403.584 -52.3046 3.52541 403.584
282 1 -54.0334 3.52092 405.469 -54.0334 3.52092 405.469
279 1 -55.7693 3.51672 407.344 -55.7693 3.51672 407.344
565 1 -57.499 3.50712 409.22 -57.499 3.50712 409.22
563 1 -59.2253 3.49427 411.1 -59.2253 3.49427 411.1
846 1 -60.9521 3.48164 412.98 -60.9521 3.48164 412.98
32 1 -42.6051 3.54328 402.3 -42.6051 3.54328 402.3
300 1 -44.3368 3.53695 404.168 -44.3368 3.53695 404.168
297 1 -46.0668 3.52544 406.04 -46.0668 3.52544 406.04
293 1 -47.7953 3.51354 407.916 -47.7953 3.51354 407.916
578 1 -49.5248 3.50193 409.792 -49.5248 3.50193 409.792
575 1 -51.2551 3.49151 411.667 -51.2551 3.49151 411.667
860 1 -52.9841 3.4806 413.543 -52.9841 3.4806 413.543
591 1 -41.5519 3.49817 410.354 -41.5519 3.49817 410.354
588 1 -43.2812 3.48722 412.232 -43.2812 3.48722 412.232
874 1 -45.0108 3.47643 414.109 -45.0108 3.47643 414.109
10 1 -57.0352 2.04925 402.608 -57.0352 2.04925 402.608
274 1 -58.7866 2.06666 404.459 -58.7866 2.06666 404.459
271 1 -60.51 2.05072 406.338 -60.51 2.05072 406.338
558 1 -62.2337 2.03499 408.22 -62.2337 2.03499 408.22
24 1 -47.3609 2.07249 401.308 -47.3609 2.07249 401.308
21 1 -49.0813 2.0662 403.158 -49.0813 2.0662 403.158
288 1 -50.8023 2.05153 405.038 -50.8023 2.05153 405.038
285 1 -52.5321 2.03974 406.914 -52.5321 2.03974 406.914
571 1 -54.2648 2.0319 408.787 -54.2648 2.0319 408.787
568 1 -55.994 2.02199 410.662 -55.994 2.02199 410.662
852 1 -57.7209 2.00981 412.541 -57.7209 2.00981 412.541
848 1 -59.4478 1.99743 414.42 -59.4478 1.99743 414.42
306 1 -41.1052 2.06106 403.722 -41.1052 2.06106 403.722
302 1 -42.8324 2.0506 405.597 -42.8324 2.0506 405.597
299 1 -44.5611 2.04026 407.476 -44.5611 2.04026 407.476
583 1 -46.2904 2.02903 409.354 -46.2904 2.02903 409.354
581 1 -48.0202 2.01789 411.231 -48.0202 2.01789 411.231
866 1 -49.7501 2.00727 413.107 -49.7501 2.00727 413.107
880 1 -41.7767 2.00267 413.671 -41.7767 2.00267 413.671
312 1 -37.2298 1.31168 405.658 -37.2298 1.31168 405.658
2 1 -61.8153 0.623434 401.574 -61.8153 0.623434 401.574
13 1 -54.663 2.79465 403.087 -54.663 2.79465 403.087
278 1 -56.4049 2.79105 404.967 -56.4049 2.79105 404.967
275 1 -58.1413 2.78632 406.839 -58.1413 2.78632 406.839
562 1 -59.8668 2.77201 408.72 -59.8668 2.77201 408.72
559 1 -61.5928 2.75837 410.601 -61.5928 2.75837 410.601
1166 1 -42.2261 3.4394 420.304 -42.2261 3.4394 420.304
889 1 -36.174 1.26373 413.733 -36.174 1.26373 413.733
28 1 -44.9761 2.8131 401.814 -44.9761 2.8131 401.814
296 1 -46.709 2.80217 403.663 -46.709 2.80217 403.663
292 1 -48.4358 2.79086 405.537 -48.4358 2.79086 405.537
289 1 -50.1636 2.7771 407.415 -50.1636 2.7771 407.415
574 1 -51.8944 2.76644 409.29 -51.8944 2.76644 409.29
572 1 -53.6248 2.75667 411.165 -53.6248 2.75667 411.165
856 1 -55.3528 2.7453 413.042 -55.3528 2.7453 413.042
303 1 -42.1921 2.77448 407.977 -42.1921 2.77448 407.977
587 1 -43.9212 2.76359 409.854 -43.9212 2.76359 409.854
584 1 -45.6506 2.75262 411.731 -45.6506 2.75262 411.731
870 1 -47.3803 2.7419 413.608 -47.3803 2.7419 413.608
6 1 -59.4192 1.34451 402.085 -59.4192 1.34451 402.085
270 1 -61.1543 1.33194 403.947 -61.1543 1.33194 403.947
267 1 -62.8733 1.31134 405.837 -62.8733 1.31134 405.837
890 1 -35.5343 1.98749 416.111 -35.5343 1.98749 416.111
18 1 -51.4357 1.31832 402.666 -51.4357 1.31832 402.666
284 1 -53.1663 1.31235 404.539 -53.1663 1.31235 404.539
281 1 -54.9023 1.30569 406.41 -54.9023 1.30569 406.41
567 1 -56.6353 1.29925 408.283 -56.6353 1.29925 408.283
564 1 -58.3623 1.28707 410.161 -58.3623 1.28707 410.161
561 1 -60.0887 1.27416 412.041 -60.0887 1.27416 412.041
844 1 -61.8157 1.2618 413.92 -61.8157 1.2618 413.92
33 1 -41.7596 1.33296 401.361 -41.7596 1.33296 401.361
30 1 -43.4768 1.3223 403.216 -43.4768 1.3223 403.216
298 1 -45.2019 1.31713 405.098 -45.2019 1.31713 405.098
295 1 -46.9306 1.30603 406.977 -46.9306 1.30603 406.977
580 1 -48.6599 1.29367 408.854 -48.6599 1.29367 408.854
577 1 -50.39 1.28283 410.729 -50.39 1.28283 410.729
862 1 -52.1198 1.27243 412.605 -52.1198 1.27243 412.605
590 1 -42.4165 1.27901 411.293 -42.4165 1.27901 411.293
876 1 -44.146 1.26809 413.17 -44.146 1.26809 413.17
1163 1 -43.7308 0.496507 418.864 -43.7308 0.496507 418.864
1153 1 -50.1973 3.44314 419.741 -50.1973 3.44314 419.741
311 1 -38.0931 3.5208 406.6 -38.0931 3.5208 406.6
42 1 -36.156 0.593339 401.423 -36.156 0.593339 401.423
1135 1 -61.398 0.489178 419.618 -61.398 0.489178 419.618
1171 1 -38.9926 1.96576 419.866 -38.9926 1.96576 419.866
1139 1 -59.0299 1.22473 420.118 -59.0299 1.22473 420.118
601 1 -35.9493 2.75925 410.416 -35.9493 2.75925 410.416
313 1 -36.362 3.53271 404.721 -36.362 3.53271 404.721
858 1 -53.848 1.26102 414.482 -53.848 1.26102 414.482
868 1 -48.2451 0.522833 414.546 -48.2451 0.522833 414.546
1147 1 -54.0707 4.19221 417.8 -54.0707 4.19221 417.8
843 1 -62.6793 3.4695 414.86 -62.6793 3.4695 414.86
593 1 -40.0474 2.01359 411.793 -40.0474 2.01359 411.793
308 1 -39.5985 0.577547 405.158 -39.5985 0.577547 405.158
861 1 -52.3431 4.20417 415.922 -52.3431 4.20417 415.922
1158 1 -46.9643 1.97007 419.302 -46.9643 1.97007 419.302
884 1 -39.4076 2.7373 414.171 -39.4076 2.7373 414.171
881 1 -41.1369 2.72645 416.049 -41.1369 2.72645 416.049
885 1 -38.7678 3.46109 416.549 -38.7678 3.46109 416.549
859 1 -53.2069 1.9845 416.861 -53.2069 1.9845 416.861
596 1 -38.3183 2.02456 409.916 -38.3183 2.02456 409.916
879 1 -42.0016 0.507328 416.987 -42.0016 0.507328 416.987
1172 1 -38.1281 4.18491 418.927 -38.1281 4.18491 418.927
1154 1 -49.3333 1.23523 418.802 -49.3333 1.23523 418.802
887 1 -37.9032 1.2528 415.61 -37.9032 1.2528 415.61
597 1 -37.6784 2.74824 412.294 -37.6784 2.74824 412.294
1161 1 -45.2354 1.9811 417.425 -45.2354 1.9811 417.425
1138 1 -59.6706 0.501152 417.739 -59.6706 0.501152 417.739
1149 1 -52.5659 2.70791 419.24 -52.5659 2.70791 419.24
41 1 -37.0022 2.80381 402.36 -37.0022 2.80381 402.36
888 1 -37.0386 3.47197 414.672 -37.0386 3.47197 414.672
1165 1 -42.8662 2.71566 417.926 -42.8662 2.71566 417.926
1141 1 -57.3025 1.23679 418.239 -57.3025 1.23679 418.239
1145 1 -54.9343 1.97243 418.739 -54.9343 1.97243 418.739
600 1 -36.5895 2.03554 408.038 -36.5895 2.03554 408.038
1148 1 -53.4297 0.488183 420.179 -53.4297 0.488183 420.179
882 1 -40.9121 4.22183 412.732 -40.9121 4.22183 412.732
1157 1 -47.8285 4.17812 420.241 -47.8285 4.17812 420.241
1144 1 -55.798 4.1801 419.679 -55.798 4.1801 419.679
602 1 -35.0847 0.551148 409.477 -35.0847 0.551148 409.477
1131 1 -63.1254 0.477309 421.497 -63.1254 0.477309 421.497
1755 1 -35.5684 2.65276 428.44 -35.5684 2.65276 428.44
1460 1 -40.0815 2.67859 424.121 -40.0815 2.67859 424.121
2308 1 -49.8073 3.3328 437.77 -49.8073 3.3328 437.77
2316 1 -44.8484 1.87198 435.452 -44.8484 1.87198 435.452
2312 1 -47.4393 4.06811 438.27 -47.4393 4.06811 438.27
1464 1 -37.7127 3.41337 424.622 -37.7127 3.41337 424.622
1461 1 -39.2171 0.470378 423.183 -39.2171 0.470378 423.183
2039 1 -38.3845 3.3539 434.574 -38.3845 3.3539 434.574
2613 1 -40.3352 1.8464 439.77 -40.3352 1.8464 439.77
1467 1 -35.344 4.14817 425.123 -35.344 4.14817 425.123
2603 1 -45.9348 2.58378 439.709 -45.9348 2.58378 439.709
1443 1 -49.5565 4.16653 422.119 -49.5565 4.16653 422.119
1748 1 -39.4413 3.4023 426.5 -39.4413 3.4023 426.5
2023 1 -47.2165 1.13674 434.952 -47.2165 1.13674 434.952
2310 1 -48.3028 1.8485 439.209 -48.3028 1.8485 439.209
1151 1 -51.0612 1.22352 420.68 -51.0612 1.22352 420.68
2303 1 -53.039 0.377811 438.209 -53.039 0.377811 438.209
2299 1 -55.407 4.06985 437.709 -55.407 4.06985 437.709
2033 1 -41.6165 0.399267 435.013 -41.6165 0.399267 435.013
1433 1 -55.1571 0.476142 422.058 -55.1571 0.476142 422.058
1430 1 -56.8845 0.464118 423.936 -56.8845 0.464118 423.936
1426 1 -58.6119 0.452134 425.815 -58.6119 0.452134 425.815
1713 1 -60.3392 0.440189 427.694 -60.3392 0.440189 427.694
1710 1 -62.0665 0.42828 429.573 -62.0665 0.42828 429.573
2330 1 -36.2398 2.59322 438.392 -36.2398 2.59322 438.392
1160 1 -45.4595 0.48547 420.742 -45.4595 0.48547 420.742
1447 1 -47.1878 0.474107 422.62 -47.1878 0.474107 422.62
1444 1 -48.9157 0.462472 424.498 -48.9157 0.462472 424.498
1730 1 -50.6434 0.450673 426.376 -50.6434 0.450673 426.376
1727 1 -52.3708 0.438795 428.255 -52.3708 0.438795 428.255
1724 1 -54.0982 0.426884 430.133 -54.0982 0.426884 430.133
2008 1 -55.8255 0.414963 432.012 -55.8255 0.414963 432.012
2006 1 -57.5527 0.403046 433.891 -57.5527 0.403046 433.891
1458 1 -40.9458 0.459312 425.06 -40.9458 0.459312 425.06
1743 1 -42.6741 0.448043 426.938 -42.6741 0.448043 426.938
1740 1 -44.402 0.436577 428.816 -44.402 0.436577 428.816
2026 1 -46.1297 0.424959 430.694 -46.1297 0.424959 430.694
2022 1 -47.8573 0.413239 432.573 -47.8573 0.413239 432.573
2019 1 -49.5846 0.401456 434.451 -49.5846 0.401456 434.451
2309 1 -48.9437 1.12497 436.83 -48.9437 1.12497 436.83
1137 1 -59.8935 3.43246 421.057 -59.8935 3.43246 421.057
1421 1 -61.6209 3.42053 422.936 -61.6209 3.42053 422.936
1439 1 -51.925 3.4313 421.619 -51.925 3.4313 421.619
1435 1 -53.6526 3.41934 423.497 -53.6526 3.41934 423.497
1432 1 -55.38 3.40735 425.376 -55.38 3.40735 425.376
1719 1 -57.1073 3.39537 427.254 -57.1073 3.39537 427.254
1716 1 -58.8347 3.38342 429.133 -58.8347 3.38342 429.133
2001 1 -60.5619 3.37149 431.012 -60.5619 3.37149 431.012
1998 1 -62.2891 3.35959 432.891 -62.2891 3.35959 432.891
2323 1 -40.1121 3.34236 436.452 -40.1121 3.34236 436.452
1453 1 -43.9549 3.42835 422.181 -43.9549 3.42835 422.181
1450 1 -45.6832 3.41704 424.059 -45.6832 3.41704 424.059
1446 1 -47.4111 3.40547 425.937 -47.4111 3.40547 425.937
1732 1 -49.1388 3.39375 427.815 -49.1388 3.39375 427.815
1729 1 -50.8663 3.38193 429.694 -50.8663 3.38193 429.694
2014 1 -52.5937 3.37006 431.573 -52.5937 3.37006 431.573
2011 1 -54.3209 3.35817 433.451 -54.3209 3.35817 433.451
1745 1 -41.1696 3.39104 428.377 -41.1696 3.39104 428.377
1742 1 -42.8976 3.3796 430.256 -42.8976 3.3796 430.256
2028 1 -44.6253 3.36802 432.134 -44.6253 3.36802 432.134
2025 1 -46.3528 3.35634 434.012 -46.3528 3.35634 434.012
1427 1 -58.3891 1.9483 422.497 -58.3891 1.9483 422.497
1424 1 -60.1164 1.93633 424.376 -60.1164 1.93633 424.376
1711 1 -61.8438 1.92442 426.255 -61.8438 1.92442 426.255
2322 1 -40.9759 1.12283 437.392 -40.9759 1.12283 437.392
1750 1 -37.9369 1.91786 427.939 -37.9369 1.91786 427.939
1155 1 -48.6925 1.95864 421.18 -48.6925 1.95864 421.18
1441 1 -50.4204 1.94691 423.058 -50.4204 1.94691 423.058
1438 1 -52.1479 1.93503 424.937 -52.1479 1.93503 424.937
1725 1 -53.8754 1.92309 426.815 -53.8754 1.92309 426.815
1722 1 -55.6028 1.91114 428.694 -55.6028 1.91114 428.694
1718 1 -57.3301 1.8992 430.573 -57.3301 1.8992 430.573
2003 1 -59.0573 1.88727 432.451 -59.0573 1.88727 432.451
2000 1 -60.7845 1.87536 434.33 -60.7845 1.87536 434.33
1459 1 -40.7216 1.95487 421.743 -40.7216 1.95487 421.743
1455 1 -42.4503 1.94382 423.621 -42.4503 1.94382 423.621
1452 1 -44.1786 1.93253 425.498 -44.1786 1.93253 425.498
1737 1 -45.9065 1.92102 427.377 -45.9065 1.92102 427.377
1735 1 -47.6342 1.90935 429.255 -47.6342 1.90935 429.255
2020 1 -49.3618 1.89759 431.133 -49.3618 1.89759 431.133
2017 1 -51.0891 1.88576 433.012 -51.0891 1.88576 433.012
2034 1 -41.3931 1.89519 431.695 -41.3931 1.89519 431.695
2031 1 -43.1209 1.88364 433.573 -43.1209 1.88364 433.573
2029 1 -43.9846 4.09155 434.512 -43.9846 4.09155 434.512
1146 1 -54.2934 2.69589 421.118 -54.2934 2.69589 421.118
1431 1 -56.0208 2.68385 422.997 -56.0208 2.68385 422.997
1428 1 -57.7482 2.67185 424.876 -57.7482 2.67185 424.876
1715 1 -59.4756 2.65988 426.755 -59.4756 2.65988 426.755
1712 1 -61.2029 2.64796 428.633 -61.2029 2.64796 428.633
1708 1 -62.9302 2.63606 430.512 -62.9302 2.63606 430.512
1747 1 -39.6652 1.90661 429.817 -39.6652 1.90661 429.817
1449 1 -46.3237 2.69356 421.681 -46.3237 2.69356 421.681
1445 1 -48.0518 2.68204 423.559 -48.0518 2.68204 423.559
1442 1 -49.7796 2.67031 425.437 -49.7796 2.67031 425.437
1728 1 -51.5071 2.65847 427.315 -51.5071 2.65847 427.315
1726 1 -53.2345 2.64657 429.194 -53.2345 2.64657 429.194
2010 1 -54.9619 2.63465 431.073 -54.9619 2.63465 431.073
2007 1 -56.6891 2.62273 432.951 -56.6891 2.62273 432.951
1456 1 -41.8099 2.66743 425.999 -41.8099 2.66743 425.999
1741 1 -43.5381 2.65606 427.877 -43.5381 2.65606 427.877
1738 1 -45.2659 2.64451 429.755 -45.2659 2.64451 429.755
2024 1 -46.9935 2.63284 431.634 -46.9935 2.63284 431.634
2021 1 -48.721 2.62108 433.512 -48.721 2.62108 433.512
2035 1 -40.7527 2.61878 434.074 -40.7527 2.61878 434.074
1754 1 -36.2084 1.92895 426.062 -36.2084 1.92895 426.062
1423 1 -60.7572 1.21276 421.997 -60.7572 1.21276 421.997
1420 1 -62.4847 1.20087 423.876 -62.4847 1.20087 423.876
2044 1 -35.1523 1.88098 434.136 -35.1523 1.88098 434.136
1437 1 -52.7888 1.2116 422.558 -52.7888 1.2116 422.558
1434 1 -54.5163 1.19962 424.436 -54.5163 1.19962 424.436
1721 1 -56.2437 1.18763 426.315 -56.2437 1.18763 426.315
1717 1 -57.971 1.17567 428.194 -57.971 1.17567 428.194
1714 1 -59.6983 1.16373 430.073 -59.6983 1.16373 430.073
1999 1 -61.4255 1.15181 431.952 -61.4255 1.15181 431.952
1997 1 -63.1527 1.13993 433.83 -63.1527 1.13993 433.83
1164 1 -43.0906 1.22018 421.242 -43.0906 1.22018 421.242
1451 1 -44.8191 1.209 423.12 -44.8191 1.209 423.12
1448 1 -46.5472 1.19755 424.998 -46.5472 1.19755 424.998
1734 1 -48.275 1.1859 426.876 -48.275 1.1859 426.876
1731 1 -50.0026 1.17412 428.755 -50.0026 1.17412 428.755
2016 1 -51.73 1.16227 430.633 -51.73 1.16227 430.633
2012 1 -53.4573 1.15039 432.512 -53.4573 1.15039 432.512
2009 1 -55.1845 1.1385 434.391 -55.1845 1.1385 434.391
1746 1 -40.3055 1.18296 427.438 -40.3055 1.18296 427.438
1744 1 -42.0336 1.17161 429.316 -42.0336 1.17161 429.316
2030 1 -43.7614 1.1601 431.195 -43.7614 1.1601 431.195
2027 1 -45.4891 1.14846 433.073 -45.4891 1.14846 433.073
2325 1 -39.2483 1.13442 435.513 -39.2483 1.13442 435.513
1749 1 -38.8011 4.12599 428.878 -38.8011 4.12599 428.878
1425 1 -59.2527 4.15603 423.436 -59.2527 4.15603 423.436
1736 1 -46.7704 4.12893 428.316 -46.7704 4.12893 428.316
1142 1 -56.6617 1.96033 420.618 -56.6617 1.96033 420.618
1720 1 -56.4664 4.11889 429.633 -56.4664 4.11889 429.633
2005 1 -58.1937 4.10696 431.512 -58.1937 4.10696 431.512
2002 1 -59.9209 4.09504 433.391 -59.9209 4.09504 433.391
1169 1 -39.8571 4.17406 420.804 -39.8571 4.17406 420.804
1723 1 -54.7391 4.13084 427.755 -54.7391 4.13084 427.755
1440 1 -51.2842 4.15471 423.997 -51.2842 4.15471 423.997
1733 1 -48.498 4.11721 430.194 -48.498 4.11721 430.194
2018 1 -50.2255 4.10541 432.073 -50.2255 4.10541 432.073
2015 1 -51.9528 4.09357 433.951 -51.9528 4.09357 433.951
2036 1 -40.5292 4.11465 430.756 -40.5292 4.11465 430.756
2032 1 -42.257 4.10316 432.634 -42.257 4.10316 432.634
2326 1 -38.6078 1.85803 437.892 -38.6078 1.85803 437.892
1752 1 -37.0727 4.13715 427 -37.0727 4.13715 427
1457 1 -41.586 4.1631 422.682 -41.586 4.1631 422.682
2043 1 -35.7925 1.15723 431.757 -35.7925 1.15723 431.757
2286 1 -62.5116 1.86347 436.209 -62.5116 1.86347 436.209
2319 1 -42.7032 1.11116 439.27 -42.7032 1.11116 439.27
1436 1 -53.0117 4.14279 425.876 -53.0117 4.14279 425.876
1422 1 -60.9801 4.14409 425.315 -60.9801 4.14409 425.315
1173 1 -37.4882 0.481296 421.305 -37.4882 0.481296 421.305
2293 1 -58.6387 1.11472 438.148 -58.6387 1.11472 438.148
2289 1 -61.0069 0.379252 437.648 -61.0069 0.379252 437.648
2295 1 -57.1341 4.05799 439.588 -57.1341 4.05799 439.588
1465 1 -36.8483 1.20513 423.683 -36.8483 1.20513 423.683
2315 1 -45.0712 0.37592 438.77 -45.0712 0.37592 438.77
2331 1 -36.0163 4.08901 435.075 -36.0163 4.08901 435.075
2297 1 -56.2706 1.85019 438.648 -56.2706 1.85019 438.648
2324 1 -39.4716 4.06595 438.831 -39.4716 4.06595 438.831
2306 1 -50.6709 1.11318 438.709 -50.6709 1.11318 438.709
2285 1 -62.7339 0.367385 439.527 -62.7339 0.367385 439.527
1462 1 -38.5771 1.19413 425.561 -38.5771 1.19413 425.561
1751 1 -37.2968 2.64159 430.318 -37.2968 2.64159 430.318
2329 1 -36.8802 1.86956 436.014 -36.8802 1.86956 436.014
2042 1 -36.6565 3.36531 432.696 -36.6565 3.36531 432.696
2041 1 -37.5205 1.14589 433.635 -37.5205 1.14589 433.635
2593 1 -51.5344 3.32101 439.648 -51.5344 3.32101 439.648
2328 1 -37.1036 0.373712 439.331 -37.1036 0.373712 439.331
2301 1 -53.9025 2.58562 439.148 -53.9025 2.58562 439.148
1466 1 -35.9839 3.42431 422.745 -35.9839 3.42431 422.745
2298 1 -56.0481 3.34628 435.33 -56.0481 3.34628 435.33
2321 1 -41.8396 3.33073 438.331 -41.8396 3.33073 438.331
2313 1 -46.5757 1.86026 437.33 -46.5757 1.86026 437.33
2294 1 -57.7752 3.33439 437.209 -57.7752 3.33439 437.209
2304 1 -52.1754 2.59745 437.27 -52.1754 2.59745 437.27
2300 1 -54.5435 1.86205 436.77 -54.5435 1.86205 436.77
2290 1 -60.1434 2.59892 436.709 -60.1434 2.59892 436.709
2318 1 -43.3439 0.387627 436.891 -43.3439 0.387627 436.891
2327 1 -37.744 4.07754 436.953 -37.744 4.07754 436.953
2004 1 -58.4163 2.61082 434.83 -58.4163 2.61082 434.83
2013 1 -52.8164 1.87391 434.891 -52.8164 1.87391 434.891
2288 1 -61.6481 4.08314 435.27 -61.6481 4.08314 435.27
2037 1 -39.8888 0.410807 433.135 -39.8888 0.410807 433.135
1739 1 -45.0426 4.14052 426.437 -45.0426 4.14052 426.437
1753 1 -36.4326 0.433469 429.379 -36.4326 0.433469 429.379
2307 1 -50.4482 2.60928 435.391 -50.4482 2.60928 435.391
2314 1 -45.712 4.07985 436.391 -45.712 4.07985 436.391
2040 1 -38.1608 0.422216 431.256 -38.1608 0.422216 431.256
2320 1 -42.4802 2.60718 435.952 -42.4802 2.60718 435.952
2292 1 -59.2798 0.391141 435.77 -59.2798 0.391141 435.77
2311 1 -48.0801 3.34459 435.891 -48.0801 3.34459 435.891
2302 1 -53.68 4.08171 435.83 -53.68 4.08171 435.83
2296 1 -56.9117 1.12661 436.27 -56.9117 1.12661 436.27
1463 1 -38.3527 2.68958 422.244 -38.3527 2.68958 422.244
2287 1 -61.8704 2.58704 438.588 -61.8704 2.58704 438.588
2291 1 -59.5022 3.32252 439.088 -59.5022 3.32252 439.088
2317 1 -44.2076 2.59551 437.83 -44.2076 2.59551 437.83
2038 1 -39.0248 2.63026 432.195 -39.0248 2.63026 432.195
2305 1 -51.3118 0.38964 436.33 -51.3118 0.38964 436.33
2332 1 -35.376 0.385258 437.453 -35.376 0.385258 437.453
1709 1 -62.7075 4.1322 427.194 -62.7075 4.1322 427.194
1468 1 -35.1194 1.21602 421.806 -35.1194 1.21602 421.806
1454 1 -43.3145 4.15193 424.56 -43.3145 4.15193 424.56
1429 1 -57.5254 4.16803 421.558 -57.5254 4.16803 421.558
1133 1 -62.2617 2.69696 420.557 -62.2617 2.69696 420.557
1175 1 -36.6237 2.70045 420.366 -36.6237 2.70045 420.366
2616 1 -38.1902 1.08564 443.589 -38.1902 1.08564 443.589
2901 1 -39.9172 1.07391 445.467 -39.9172 1.07391 445.467
2907 1 -36.686 4.02879 445.028 -36.686 4.02879 445.028
3194 1 -37.7719 0.313127 449.286 -37.7719 0.313127 449.286
2587 1 -54.766 0.365986 440.088 -54.766 0.365986 440.088
2597 1 -49.1664 4.05634 440.148 -49.1664 4.05634 440.148
2584 1 -56.4929 0.354178 441.967 -56.4929 0.354178 441.967
2581 1 -58.2197 0.342392 443.845 -58.2197 0.342392 443.845
2868 1 -59.9465 0.330626 445.724 -59.9465 0.330626 445.724
2865 1 -61.6733 0.318875 447.603 -61.6733 0.318875 447.603
2601 1 -46.7984 0.364176 440.648 -46.7984 0.364176 440.648
2598 1 -48.5254 0.35242 442.527 -48.5254 0.35242 442.527
2885 1 -50.2522 0.340678 444.406 -50.2522 0.340678 444.406
2882 1 -51.979 0.328976 446.285 -51.979 0.328976 446.285
2879 1 -53.7058 0.317334 448.164 -53.7058 0.317334 448.164
2612 1 -40.5581 0.350373 443.088 -40.5581 0.350373 443.088
2898 1 -42.285 0.338637 444.967 -42.285 0.338637 444.967
2895 1 -44.0118 0.326891 446.846 -44.0118 0.326891 446.846
3180 1 -45.7385 0.315165 448.725 -45.7385 0.315165 448.725
2576 1 -61.2292 3.31066 440.967 -61.2292 3.31066 440.967
2574 1 -62.9561 3.29882 442.845 -62.9561 3.29882 442.845
2589 1 -53.2614 3.30922 441.527 -53.2614 3.30922 441.527
2586 1 -54.9883 3.29745 443.406 -54.9883 3.29745 443.406
2874 1 -56.7151 3.28572 445.285 -56.7151 3.28572 445.285
2871 1 -58.4418 3.27402 447.164 -58.4418 3.27402 447.164
3155 1 -60.1685 3.26235 449.042 -60.1685 3.26235 449.042
2607 1 -43.5668 3.31903 440.209 -43.5668 3.31903 440.209
2604 1 -45.2939 3.3073 442.088 -45.2939 3.3073 442.088
2600 1 -47.0208 3.29555 443.967 -47.0208 3.29555 443.967
2887 1 -48.7477 3.28382 445.846 -48.7477 3.28382 445.846
2884 1 -50.4744 3.27212 447.724 -50.4744 3.27212 447.724
3168 1 -52.2011 3.26049 449.603 -52.2011 3.26049 449.603
2900 1 -40.7806 3.28177 446.407 -40.7806 3.28177 446.407
2897 1 -42.5074 3.27002 448.285 -42.5074 3.27002 448.285
2582 1 -57.9975 1.83834 440.527 -57.9975 1.83834 440.527
2579 1 -59.7244 1.82651 442.406 -59.7244 1.82651 442.406
2866 1 -61.4513 1.8147 444.285 -61.4513 1.8147 444.285
2578 1 -60.3657 1.10286 440.027 -60.3657 1.10286 440.027
2595 1 -50.0299 1.83673 441.088 -50.0299 1.83673 441.088
2592 1 -51.7568 1.82497 442.967 -51.7568 1.82497 442.967
2880 1 -53.4836 1.81324 444.845 -53.4836 1.81324 444.845
2877 1 -55.2104 1.80156 446.724 -55.2104 1.80156 446.724
2873 1 -56.9371 1.78993 448.603 -56.9371 1.78993 448.603
2609 1 -42.0624 1.8347 441.649 -42.0624 1.8347 441.649
2606 1 -43.7895 1.82297 443.527 -43.7895 1.82297 443.527
2892 1 -45.5163 1.81122 445.406 -45.5163 1.81122 445.406
2890 1 -47.2431 1.79949 447.285 -47.2431 1.79949 447.285
3174 1 -48.9697 1.7878 449.164 -48.9697 1.7878 449.164
2618 1 -37.3267 3.30522 442.649 -37.3267 3.30522 442.649
2585 1 -55.6294 2.57381 441.027 -55.6294 2.57381 441.027
2583 1 -57.3563 2.56201 442.906 -57.3563 2.56201 442.906
2870 1 -59.0831 2.55023 444.785 -59.0831 2.55023 444.785
2867 1 -60.8099 2.53848 446.664 -60.8099 2.53848 446.664
2863 1 -62.5366 2.52673 448.542 -62.5366 2.52673 448.542
2599 1 -47.6619 2.57202 441.588 -47.6619 2.57202 441.588
2596 1 -49.3888 2.56027 443.467 -49.3888 2.56027 443.467
2883 1 -51.1156 2.54855 445.346 -51.1156 2.54855 445.346
2881 1 -52.8424 2.53687 447.224 -52.8424 2.53687 447.224
3164 1 -54.5691 2.52527 449.103 -54.5691 2.52527 449.103
2610 1 -41.4216 2.55823 444.028 -41.4216 2.55823 444.028
2896 1 -43.1485 2.54649 445.906 -43.1485 2.54649 445.906
2893 1 -44.8752 2.53475 447.785 -44.8752 2.53475 447.785
3178 1 -46.6018 2.52305 449.664 -46.6018 2.52305 449.664
2575 1 -62.0926 1.09101 441.906 -62.0926 1.09101 441.906
2591 1 -52.3979 1.10138 440.588 -52.3979 1.10138 440.588
2588 1 -54.1248 1.0896 442.467 -54.1248 1.0896 442.467
2876 1 -55.8517 1.07785 444.345 -55.8517 1.07785 444.345
2872 1 -57.5785 1.06614 446.224 -57.5785 1.06614 446.224
2869 1 -59.3052 1.05446 448.103 -59.3052 1.05446 448.103
2605 1 -44.4304 1.09944 441.149 -44.4304 1.09944 441.149
2602 1 -46.1574 1.0877 443.027 -46.1574 1.0877 443.027
2889 1 -47.8843 1.07595 444.906 -47.8843 1.07595 444.906
2886 1 -49.611 1.06424 446.785 -49.611 1.06424 446.785
3170 1 -51.3377 1.05257 448.664 -51.3377 1.05257 448.664
2899 1 -41.644 1.06217 447.346 -41.644 1.06217 447.346
3184 1 -43.3706 1.05043 449.225 -43.3706 1.05043 449.225
2580 1 -58.861 4.04615 441.467 -58.861 4.04615 441.467
2577 1 -60.5879 4.03433 443.345 -60.5879 4.03433 443.345
2864 1 -62.3147 4.02253 445.224 -62.3147 4.02253 445.224
2862 1 -63.1781 1.8029 446.163 -63.1781 1.8029 446.163
2594 1 -50.8934 4.04457 442.027 -50.8934 4.04457 442.027
2590 1 -52.6202 4.03282 443.906 -52.6202 4.03282 443.906
2878 1 -54.347 4.02112 445.785 -54.347 4.02112 445.785
2875 1 -56.0738 4.00946 447.664 -56.0738 4.00946 447.664
3159 1 -57.8005 3.99787 449.543 -57.8005 3.99787 449.543
2611 1 -41.1989 4.05428 440.71 -41.1989 4.05428 440.71
2608 1 -42.926 4.04256 442.588 -42.926 4.04256 442.588
2894 1 -44.6529 4.03082 444.467 -44.6529 4.03082 444.467
2891 1 -46.3797 4.01908 446.346 -46.3797 4.01908 446.346
2888 1 -48.1064 4.00736 448.224 -48.1064 4.00736 448.224
2904 1 -38.4129 4.01705 446.907 -38.4129 4.01705 446.907
2621 1 -35.5994 3.31687 440.771 -35.5994 3.31687 440.771
2617 1 -37.9673 2.58163 440.271 -37.9673 2.58163 440.271
2614 1 -39.6945 2.56996 442.149 -39.6945 2.56996 442.149
2908 1 -36.0452 0.324901 447.407 -36.0452 0.324901 447.407
2619 1 -36.4631 1.09733 441.71 -36.4631 1.09733 441.71
2906 1 -36.9086 2.53274 448.347 -36.9086 2.53274 448.347
2905 1 -37.5495 1.8092 445.968 -37.5495 1.8092 445.968
2620 1 -35.8225 1.82093 444.089 -35.8225 1.82093 444.089
3190 1 -40.1396 4.0053 448.786 -40.1396 4.0053 448.786
2902 1 -39.2763 1.79745 447.846 -39.2763 1.79745 447.846
2903 1 -39.0538 3.29351 444.528 -39.0538 3.29351 444.528
2615 1 -38.8309 0.362074 441.21 -38.8309 0.362074 441.21
2909 1 -35.1818 2.54451 446.468 -35.1818 2.54451 446.468
14 1 -54.4637 4.32372 399.9 -54.4637 4.32372 399.9
7 1 -59.127 2.82432 398.993 -59.127 2.82432 398.993
25 1 -46.4843 4.31606 400.374 -46.4843 4.31606 400.374
38 1 -38.5008 4.27078 400.889 -38.5008 4.27078 400.889
23 1 -48.2138 4.288 402.245 -48.2138 4.288 402.245
287 1 -51.6673 4.2572 405.972 -51.6673 4.2572 405.972
878 1 -42.6414 4.21098 414.609 -42.6414 4.21098 414.609
579 1 -48.8852 4.22633 412.169 -48.8852 4.22633 412.169
585 1 -45.4257 4.24848 408.416 -45.4257 4.24848 408.416
290 1 -49.9423 4.26968 404.096 -49.9423 4.26968 404.096
11 1 -56.1758 4.27109 401.686 -56.1758 4.27109 401.686
595 1 -39.1828 4.23281 410.855 -39.1828 4.23281 410.855
1134 1 -62.0387 4.19305 417.239 -62.0387 4.19305 417.239
283 1 -53.3986 4.24909 407.848 -53.3986 4.24909 407.848
582 1 -47.1552 4.23713 410.293 -47.1552 4.23713 410.293
276 1 -57.9164 4.27918 403.542 -57.9164 4.27918 403.542
569 1 -55.1298 4.24099 409.723 -55.1298 4.24099 409.723
847 1 -60.3114 4.20506 415.36 -60.3114 4.20506 415.36
556 1 -63.097 4.24224 409.161 -63.097 4.24224 409.161
272 1 -59.651 4.27376 405.399 -59.651 4.27376 405.399
3 1 -60.9492 2.83534 400.677 -60.9492 2.83534 400.677
35 1 -40.2335 4.28235 402.772 -40.2335 4.28235 402.772
598 1 -37.4536 4.24394 408.977 -37.4536 4.24394 408.977
850 1 -58.5843 4.21731 413.48 -58.5843 4.21731 413.48
304 1 -41.9644 4.27169 404.66 -41.9644 4.27169 404.66