ITEM: TIMESTEP
0
ITEM: NUMBER OF ATOMS
4630
ITEM: BOX BOUNDS xy xz yz pp pp pp
-6.4000366220567130e+01 1.0701939806876713e+02 0.0000000000000000e+00
0.0000000000000000e+00 4.4274527100805940e+00 0.0000000000000000e+00
3.8000000000000000e+02 5.0000000000000000e+02 0.0000000000000000e+00
ITEM: ATOMS id type x y z xu yu zu
27 1 -46.1046 1.98587 399.719 -46.1046 1.98587 399.719
36 1 -40.4597 1.24523 399.778 -40.4597 1.24523 399.778
31 1 -43.7056 2.68376 400.158 -43.7056 2.68376 400.158
22 1 -49.326 3.43655 400.123 -49.326 3.43655 400.123
20 1 -50.2168 1.21386 400.963 -50.2168 1.21386 400.963
40 1 -38.0626 1.94426 400.218 -38.0626 1.94426 400.218
34 1 -41.3274 3.44345 400.607 -41.3274 3.44345 400.607
17 1 -52.599 0.464311 400.52 -52.599 0.464311 400.52
9 1 -58.2125 1.15763 400.428 -58.2125 1.15763 400.428
43 1 -35.6851 2.70474 400.669 -35.6851 2.70474 400.669
12 1 -55.8597 1.96368 400.907 -55.8597 1.96368 400.907
5 1 -60.6037 0.474627 399.966 -60.6037 0.474627 399.966
29 1 -44.5731 0.455113 401.008 -44.5731 0.455113 401.008
853 1 -57.653 2.6557 415.024 -57.653 2.6557 415.024
873 1 -46.3661 1.18053 415.156 -46.3661 1.18053 415.156
865 1 -50.4959 0.4401 416.523 -50.4959 0.4401 416.523
1174 1 -37.6925 1.91069 418.087 -37.6925 1.91069 418.087
883 1 -40.7216 0.441592 415.221 -40.7216 0.441592 415.221
863 1 -52.011 1.9192 415.09 -52.011 1.9192 415.09
315 1 -35.9124 1.20476 403.947 -35.9124 1.20476 403.947
307 1 -40.9088 2.67598 406.254 -40.9088 2.67598 406.254
1150 1 -52.2379 0.435432 418.391 -52.2379 0.435432 418.391
855 1 -56.1384 1.17692 416.458 -56.1384 1.17692 416.458
310 1 -39.1663 2.68214 404.39 -39.1663 2.68214 404.39
871 1 -47.2378 3.39237 416.09 -47.2378 3.39237 416.09
16 1 -53.4667 2.66266 401.371 -53.4667 2.66266 401.371
309 1 -39.3935 1.19689 407.684 -39.3935 1.19689 407.684
1156 1 -48.9807 3.38834 417.957 -48.9807 3.38834 417.957
867 1 -49.6245 2.65591 415.59 -49.6245 2.65591 415.59
1159 1 -46.5943 4.12488 418.457 -46.5943 4.12488 418.457
1168 1 -40.95 3.38594 418.522 -40.95 3.38594 418.522
1170 1 -40.0785 1.17416 417.588 -40.0785 1.17416 417.588
594 1 -40.2648 3.40839 408.62 -40.2648 3.40839 408.62
37 1 -39.8093 1.95015 402.049 -39.8093 1.95015 402.049
851 1 -58.5234 0.439235 415.958 -58.5234 0.439235 415.958
857 1 -55.2678 3.3933 415.523 -55.2678 3.3933 415.523
592 1 -41.136 1.19257 409.554 -41.136 1.19257 409.554
849 1 -59.3939 2.65029 416.893 -59.3939 2.65029 416.893
877 1 -43.9795 1.91691 415.656 -43.9795 1.91691 415.656
1143 1 -57.0089 3.38799 417.392 -57.0089 3.38799 417.392
1140 1 -58.75 3.38275 419.261 -58.75 3.38275 419.261
845 1 -61.7789 1.9126 416.394 -61.7789 1.9126 416.394
875 1 -44.8512 4.12875 416.589 -44.8512 4.12875 416.589
886 1 -38.9787 0.44566 413.353 -38.9787 0.44566 413.353
891 1 -35.7216 3.39817 412.918 -35.7216 3.39817 412.918
39 1 -38.2996 0.463465 403.442 -38.2996 0.463465 403.442
1177 1 -36.1779 0.431526 419.52 -36.1779 0.431526 419.52
1167 1 -41.8215 1.17027 419.455 -41.8215 1.17027 419.455
8 1 -59.0904 3.4117 401.382 -59.0904 3.4117 401.382
869 1 -48.1094 1.1767 417.023 -48.1094 1.1767 417.023
1136 1 -61.1351 2.64513 418.762 -61.1351 2.64513 418.762
1162 1 -45.0793 2.6456 419.89 -45.0793 2.6456 419.89
15 1 -54.3411 0.467794 402.353 -54.3411 0.467794 402.353
280 1 -56.0882 0.460166 404.195 -56.0882 0.460166 404.195
277 1 -57.8436 0.467565 406.052 -57.8436 0.467565 406.052
273 1 -59.5874 0.462317 407.915 -59.5874 0.462317 407.915
560 1 -61.3262 0.454057 409.786 -61.3262 0.454057 409.786
557 1 -63.0663 0.447695 411.657 -63.0663 0.447695 411.657
26 1 -46.3176 0.472756 402.883 -46.3176 0.472756 402.883
294 1 -48.0646 0.469763 404.759 -48.0646 0.469763 404.759
291 1 -49.8084 0.460453 406.623 -49.8084 0.460453 406.623
576 1 -51.552 0.455301 408.49 -51.552 0.455301 408.49
573 1 -53.2976 0.45308 410.355 -53.2976 0.45308 410.355
570 1 -55.0412 0.449755 412.221 -55.0412 0.449755 412.221
854 1 -56.7826 0.444703 414.089 -56.7826 0.444703 414.089
305 1 -41.7788 0.460461 407.187 -41.7788 0.460461 407.187
589 1 -43.522 0.456151 409.056 -43.522 0.456151 409.056
586 1 -45.2654 0.451825 410.923 -45.2654 0.451825 410.923
872 1 -47.009 0.447829 412.79 -47.009 0.447829 412.79
599 1 -37.236 0.449943 411.485 -37.236 0.449943 411.485
1132 1 -63.5202 1.90761 418.263 -63.5202 1.90761 418.263
4 1 -60.8842 3.43949 403.167 -60.8842 3.43949 403.167
268 1 -62.6155 3.41779 405.037 -62.6155 3.41779 405.037
1152 1 -51.367 2.65156 417.457 -51.367 2.65156 417.457
19 1 -51.0988 3.40688 401.885 -51.0988 3.40688 401.885
286 1 -52.832 3.40646 403.743 -52.832 3.40646 403.743
282 1 -54.5756 3.40925 405.619 -54.5756 3.40925 405.619
279 1 -56.3267 3.41174 407.484 -56.3267 3.41174 407.484
565 1 -58.0714 3.40909 409.35 -58.0714 3.40909 409.35
563 1 -59.8117 3.40269 411.22 -59.8117 3.40269 411.22
846 1 -61.5521 3.3966 413.09 -61.5521 3.3966 413.09
32 1 -43.0622 3.41922 402.472 -43.0622 3.41922 402.472
300 1 -44.8078 3.42037 404.33 -44.8078 3.42037 404.33
297 1 -46.5522 3.41539 406.191 -46.5522 3.41539 406.191
293 1 -48.2945 3.41017 408.058 -48.2945 3.41017 408.058
578 1 -50.0381 3.40539 409.924 -50.0381 3.40539 409.924
575 1 -51.7828 3.40205 411.789 -51.7828 3.40205 411.789
860 1 -53.5261 3.39823 413.655 -53.5261 3.39823 413.655
591 1 -42.0077 3.40409 410.488 -42.0077 3.40409 410.488
588 1 -43.7508 3.4 412.356 -43.7508 3.4 412.356
874 1 -45.4943 3.39612 414.223 -45.4943 3.39612 414.223
10 1 -57.5951 1.92632 402.771 -57.5951 1.92632 402.771
274 1 -59.3636 1.95095 404.611 -59.3636 1.95095 404.611
271 1 -61.1028 1.94164 406.477 -61.1028 1.94164 406.477
558 1 -62.8399 1.93202 408.351 -62.8399 1.93202 408.351
24 1 -47.8506 1.94249 401.478 -47.8506 1.94249 401.478
21 1 -49.5851 1.94535 403.321 -49.5851 1.94535 403.321
288 1 -51.3201 1.93742 405.192 -51.3201 1.93742 405.192
285 1 -53.0646 1.93279 407.059 -53.0646 1.93279 407.059
571 1 -54.8123 1.93201 408.921 -54.8123 1.93201 408.921
568 1 -56.5563 1.92916 410.786 -56.5563 1.92916 410.786
852 1 -58.2972 1.92367 412.655 -58.2972 1.92367 412.655
848 1 -60.0379 1.91794 414.524 -60.0379 1.91794 414.524
306 1 -41.5539 1.94288 403.885 -41.5539 1.94288 403.885
302 1 -43.2941 1.93897 405.752 -43.2941 1.93897 405.752
299 1 -45.0367 1.93559 407.622 -45.0367 1.93559 407.622
583 1 -46.7798 1.93111 409.49 -46.7798 1.93111 409.49
581 1 -48.5237 1.92678 411.357 -48.5237 1.92678 411.357
866 1 -50.2678 1.92317 413.223 -50.2678 1.92317 413.223
880 1 -42.2362 1.9208 413.788 -42.2362 1.9208 413.788
312 1 -37.6522 1.20095 405.814 -37.6522 1.20095 405.814
2 1 -62.4122 0.491923 401.733 -62.4122 0.491923 401.733
13 1 -55.2077 2.67509 403.248 -55.2077 2.67509 403.248
278 1 -56.9639 2.6772 405.119 -56.9639 2.6772 405.119
275 1 -58.7165 2.67966 406.979 -58.7165 2.67966 406.979
562 1 -60.4564 2.6717 408.85 -60.4564 2.6717 408.85
559 1 -62.196 2.6644 410.721 -62.196 2.6644 410.721
1166 1 -42.693 3.38204 420.389 -42.693 3.38204 420.389
889 1 -36.5928 1.18231 413.852 -36.5928 1.18231 413.852
28 1 -45.4497 2.68853 401.99 -45.4497 2.68853 401.99
296 1 -47.197 2.68333 403.825 -47.197 2.68333 403.825
292 1 -48.9376 2.67879 405.69 -48.9376 2.67879 405.69
289 1 -50.6794 2.67169 407.558 -50.6794 2.67169 407.558
574 1 -52.4247 2.66811 409.423 -52.4247 2.66811 409.423
572 1 -54.1698 2.6655 411.288 -54.1698 2.6655 411.288
856 1 -55.912 2.66112 413.155 -55.912 2.66112 413.155
303 1 -42.651 2.67162 408.121 -42.651 2.67162 408.121
587 1 -44.3938 2.66761 409.989 -44.3938 2.66761 409.989
584 1 -46.1371 2.66349 411.857 -46.1371 2.66349 411.857
870 1 -47.8809 2.65969 413.723 -47.8809 2.65969 413.723
6 1 -59.9964 1.21965 402.251 -59.9964 1.21965 402.251
270 1 -61.7503 1.21412 404.097 -61.7503 1.21412 404.097
267 1 -63.4824 1.19938 405.978 -63.4824 1.19938 405.978
890 1 -35.9497 1.91477 416.219 -35.9497 1.91477 416.219
18 1 -51.9555 1.19613 402.833 -51.9555 1.19613 402.833
284 1 -53.7011 1.19761 404.696 -53.7011 1.19761 404.696
281 1 -55.452 1.1972 406.556 -55.452 1.1972 406.556
567 1 -57.2004 1.19784 408.417 -57.2004 1.19784 408.417
564 1 -58.9418 1.19229 410.285 -58.9418 1.19229 410.285
561 1 -60.6819 1.18582 412.155 -60.6819 1.18582 412.155
844 1 -62.4226 1.18012 414.025 -62.4226 1.18012 414.025
33 1 -42.2114 1.20458 401.532 -42.2114 1.20458 401.532
30 1 -43.9407 1.20156 403.381 -43.9407 1.20156 403.381
298 1 -45.6801 1.20387 405.254 -45.6801 1.20387 405.254
295 1 -47.4228 1.19939 407.124 -47.4228 1.19939 407.124
580 1 -49.1661 1.19365 408.991 -49.1661 1.19365 408.991
577 1 -50.9105 1.18979 410.857 -50.9105 1.18979 410.857
862 1 -52.6547 1.18651 412.722 -52.6547 1.18651 412.722
590 1 -42.8791 1.18837 411.422 -42.8791 1.18837 411.422
876 1 -44.6225 1.18431 413.289 -44.6225 1.18431 413.289
1163 1 -44.2079 0.433849 418.956 -44.2079 0.433849 418.956
1153 1 -50.7229 3.3838 419.825 -50.7229 3.3838 419.825
311 1 -38.5219 3.4135 406.752 -38.5219 3.4135 406.752
42 1 -36.5696 0.465689 401.594 -36.5696 0.465689 401.594
1135 1 -62.0058 0.42891 419.697 -62.0058 0.42891 419.697
1171 1 -39.4353 1.90673 419.955 -39.4353 1.90673 419.955
1139 1 -59.6206 1.16647 420.196 -59.6206 1.16647 420.196
601 1 -36.3648 2.66582 410.55 -36.3648 2.66582 410.55
313 1 -36.7777 3.41895 404.882 -36.7777 3.41895 404.882
858 1 -54.3971 1.18212 414.589 -54.3971 1.18212 414.589
868 1 -48.7528 0.444132 414.657 -48.7528 0.444132 414.657
1147 1 -54.6236 4.12557 417.892 -54.6236 4.12557 417.892
843 1 -63.2932 3.39125 414.96 -63.2932 3.39125 414.96
593 1 -40.4932 1.92487 411.92 -40.4932 1.92487 411.92
308 1 -40.0371 0.464944 405.315 -40.0371 0.464944 405.315
861 1 -52.8821 4.13062 416.023 -52.8821 4.13062 416.023
1158 1 -47.4657 1.90909 419.39 -47.4657 1.90909 419.39
884 1 -39.8501 2.65733 414.287 -39.8501 2.65733 414.287
881 1 -41.5932 2.65336 416.155 -41.5932 2.65336 416.155
885 1 -39.207 3.38986 416.654 -39.207 3.38986 416.654
859 1 -53.7529 1.91441 416.957 -53.7529 1.91441 416.957
596 1 -38.7505 1.92908 410.052 -38.7505 1.92908 410.052
879 1 -42.4648 0.437695 417.089 -42.4648 0.437695 417.089
1172 1 -38.5639 4.12243 419.021 -38.5639 4.12243 419.021
1154 1 -49.8519 1.17241 418.891 -49.8519 1.17241 418.891
887 1 -38.3356 1.17815 415.72 -38.3356 1.17815 415.72
597 1 -38.1073 2.66147 412.419 -38.1073 2.66147 412.419
1161 1 -45.7228 1.91312 417.523 -45.7228 1.91312 417.523
1138 1 -60.2645 0.433948 417.827 -60.2645 0.433948 417.827
1149 1 -53.1087 2.64666 419.325 -53.1087 2.64666 419.325
41 1 -37.4209 2.68071 402.533 -37.4209 2.68071 402.533
888 1 -37.4642 3.39393 414.786 -37.4642 3.39393 414.786
1165 1 -43.3364 2.64951 418.022 -43.3364 2.64951 418.022
1141 1 -57.8794 1.17162 418.327 -57.8794 1.17162 418.327
1145 1 -55.4942 1.90923 418.826 -55.4942 1.90923 418.826
600 1 -37.0085 1.93343 408.183 -37.0085 1.93343 408.183
1148 1 -53.9794 0.430398 420.26 -53.9794 0.430398 420.26
882 1 -41.3647 4.13652 412.854 -41.3647 4.13652 412.854
1157 1 -48.3368 4.12065 420.324 -48.3368 4.12065 420.324
1144 1 -56.3648 4.12036 419.76 -56.3648 4.12036 419.76
602 1 -35.4936 0.454466 409.616 -35.4936 0.454466 409.616
1131 1 -63.7472 0.424078 421.566 -63.7472 0.424078 421.566
1755 1 -35.9904 2.62513 428.489 -35.9904 2.62513 428.489
1460 1 -40.5347 2.63527 424.189 -40.5347 2.63527 424.189
2308 1 -50.342 3.34067 437.768 -50.342 3.34067 437.768
2316 1 -45.3441 1.87089 435.463 -45.3441 1.87089 435.463
2312 1 -47.9565 4.07768 438.266 -47.9565 4.07768 438.266
1464 1 -38.1486 3.3718 424.689 -38.1486 3.3718 424.689
1461 1 -39.6634 0.423563 423.255 -39.6634 0.423563 423.255
2039 1 -38.831 3.34907 434.593 -38.831 3.34907 434.593
2613 1 -40.7999 1.86102 439.763 -40.7999 1.86102 439.763
1467 1 -35.7626 4.10836 425.188 -35.7626 4.10836 425.188
2603 1 -46.4418 2.59861 439.7 -46.4418 2.59861 439.7
1443 1 -50.0788 4.11603 422.192 -50.0788 4.11603 422.192
1748 1 -39.8911 3.36771 426.557 -39.8911 3.36771 426.557
2023 1 -47.7297 1.13394 434.964 -47.7297 1.13394 434.964
2310 1 -48.8273 1.86164 439.201 -48.8273 1.86164 439.201
1151 1 -51.5938 1.16766 420.759 -51.5938 1.16766 420.759
2303 1 -53.5981 0.387517 438.203 -53.5981 0.387517 438.203
2299 1 -55.9835 4.07781 437.705 -55.9835 4.07781 437.705
2033 1 -42.0876 0.396311 435.028 -42.0876 0.396311 435.028
1433 1 -55.7207 0.425298 422.128 -55.7207 0.425298 422.128
1430 1 -57.462 0.420264 423.997 -57.462 0.420264 423.997
1426 1 -59.2034 0.415327 425.866 -59.2034 0.415327 425.866
1713 1 -60.9448 0.410482 427.735 -60.9448 0.410482 427.735
1710 1 -62.6863 0.405715 429.604 -62.6863 0.405715 429.604
2330 1 -36.6726 2.60237 438.393 -36.6726 2.60237 438.393
1160 1 -45.9506 0.429816 420.824 -45.9506 0.429816 420.824
1447 1 -47.6929 0.425452 422.692 -47.6929 0.425452 422.692
1444 1 -49.4347 0.420809 424.56 -49.4347 0.420809 424.56
1730 1 -51.1764 0.416014 426.428 -51.1764 0.416014 426.428
1727 1 -52.9179 0.41117 428.297 -52.9179 0.41117 428.297
1724 1 -54.6593 0.406328 430.166 -54.6593 0.406328 430.166
2008 1 -56.4008 0.401512 432.035 -56.4008 0.401512 432.035
2006 1 -58.1422 0.396726 433.904 -58.1422 0.396726 433.904
1458 1 -41.4059 0.419489 425.123 -41.4059 0.419489 425.123
1743 1 -43.1482 0.41524 426.991 -43.1482 0.41524 426.991
1740 1 -44.8902 0.410812 428.86 -44.8902 0.410812 428.86
2026 1 -46.6319 0.406249 430.728 -46.6319 0.406249 430.728
2022 1 -48.3736 0.401604 432.597 -48.3736 0.401604 432.597
2019 1 -50.1152 0.396917 434.466 -50.1152 0.396917 434.466
2309 1 -49.4712 1.12928 436.833 -49.4712 1.12928 436.833
1137 1 -60.4913 3.37768 421.13 -60.4913 3.37768 421.13
1421 1 -62.2326 3.37279 422.999 -62.2326 3.37279 422.999
1439 1 -52.4645 3.37891 421.693 -52.4645 3.37891 421.693
1435 1 -54.206 3.37391 423.562 -54.206 3.37391 423.562
1432 1 -55.9474 3.36893 425.431 -55.9474 3.36893 425.431
1719 1 -57.6887 3.36401 427.299 -57.6887 3.36401 427.299
1716 1 -59.4302 3.35915 429.168 -59.4302 3.35915 429.168
2001 1 -61.1716 3.35436 431.037 -61.1716 3.35436 431.037
1998 1 -62.913 3.34962 432.906 -62.913 3.34962 432.906
2323 1 -40.5729 3.34463 436.461 -40.5729 3.34463 436.461
1453 1 -44.4357 3.378 422.257 -44.4357 3.378 422.257
1450 1 -46.1779 3.37369 424.125 -46.1779 3.37369 424.125
1446 1 -47.9199 3.36913 425.993 -47.9199 3.36913 425.993
1732 1 -49.6615 3.36443 427.862 -49.6615 3.36443 427.862
1729 1 -51.4031 3.35966 429.73 -51.4031 3.35966 429.73
2014 1 -53.1446 3.35487 431.599 -53.1446 3.35487 431.599
2011 1 -54.8861 3.35009 433.468 -54.8861 3.35009 433.468
1745 1 -41.6333 3.36348 428.425 -41.6333 3.36348 428.425
1742 1 -43.3753 3.35909 430.293 -43.3753 3.35909 430.293
2028 1 -45.1172 3.35458 432.161 -45.1172 3.35458 432.161
2025 1 -46.8588 3.34998 434.03 -46.8588 3.34998 434.03
1427 1 -58.9767 1.89899 422.564 -58.9767 1.89899 422.564
1424 1 -60.718 1.89407 424.433 -60.718 1.89407 424.433
1711 1 -62.4595 1.88925 426.302 -62.4595 1.88925 426.302
2322 1 -41.4438 1.12866 437.395 -41.4438 1.12866 437.395
1750 1 -38.3763 1.88851 427.99 -38.3763 1.88851 427.99
1155 1 -49.2079 1.90465 421.258 -49.2079 1.90465 421.258
1441 1 -50.9496 1.89989 423.127 -50.9496 1.89989 423.127
1438 1 -52.6912 1.895 424.995 -52.6912 1.895 424.995
1725 1 -54.4326 1.89008 426.864 -54.4326 1.89008 426.864
1722 1 -56.1741 1.88519 428.733 -56.1741 1.88519 428.733
1718 1 -57.9155 1.88035 430.602 -57.9155 1.88035 430.602
2003 1 -59.6569 1.87555 432.47 -59.6569 1.87555 432.47
2000 1 -61.3983 1.8708 434.339 -61.3983 1.8708 434.339
1459 1 -41.1782 1.90279 421.822 -41.1782 1.90279 421.822
1455 1 -42.9208 1.89874 423.69 -42.9208 1.89874 423.69
1452 1 -44.663 1.89446 425.558 -44.663 1.89446 425.558
1737 1 -46.405 1.88998 427.427 -46.405 1.88998 427.427
1735 1 -48.1467 1.88535 429.295 -48.1467 1.88535 429.295
2020 1 -49.8884 1.88065 431.164 -49.8884 1.88065 431.164
2017 1 -51.6299 1.87591 433.032 -51.6299 1.87591 433.032
2034 1 -41.8605 1.87992 431.726 -41.8605 1.87992 431.726
2031 1 -43.6024 1.87545 433.595 -43.6024 1.87545 433.595
2029 1 -44.4733 4.0869 434.529 -44.4733 4.0869 434.529
1146 1 -54.8501 2.64157 421.194 -54.8501 2.64157 421.194
1431 1 -56.5914 2.6365 423.063 -56.5914 2.6365 423.063
1428 1 -58.3327 2.63151 424.932 -58.3327 2.63151 424.932
1715 1 -60.0741 2.62662 426.801 -60.0741 2.62662 426.801
1712 1 -61.8155 2.62182 428.67 -61.8155 2.62182 428.67
1708 1 -63.557 2.61708 430.539 -63.557 2.61708 430.539
1747 1 -40.1185 1.88428 429.858 -40.1185 1.88428 429.858
1449 1 -46.8218 2.6414 421.758 -46.8218 2.6414 421.758
1445 1 -48.5639 2.63688 423.626 -48.5639 2.63688 423.626
1442 1 -50.3056 2.63215 425.494 -50.3056 2.63215 425.494
1728 1 -52.0471 2.62732 427.363 -52.0471 2.62732 427.363
1726 1 -53.7886 2.62247 429.232 -53.7886 2.62247 429.232
2010 1 -55.5301 2.61764 431.1 -55.5301 2.61764 431.1
2007 1 -57.2715 2.61284 432.969 -57.2715 2.61284 432.969
1456 1 -42.2771 2.63112 426.057 -42.2771 2.63112 426.057
1741 1 -44.0192 2.62677 427.926 -44.0192 2.62677 427.926
1738 1 -45.7611 2.62227 429.794 -45.7611 2.62227 429.794
2024 1 -47.5028 2.61766 431.663 -47.5028 2.61766 431.663
2021 1 -49.2444 2.61299 433.531 -49.2444 2.61299 433.531
2035 1 -41.2167 2.61227 434.094 -41.2167 2.61227 434.094
1754 1 -36.6339 1.89261 426.122 -36.6339 1.89261 426.122
1423 1 -61.3619 1.16149 422.065 -61.3619 1.16149 422.065
1420 1 -63.1034 1.15667 423.934 -63.1034 1.15667 423.934
2044 1 -35.5743 1.87427 434.158 -35.5743 1.87427 434.158
1437 1 -53.3353 1.16269 422.627 -53.3353 1.16269 422.627
1434 1 -55.0767 1.15769 424.496 -55.0767 1.15769 424.496
1721 1 -56.818 1.15273 426.365 -56.818 1.15273 426.365
1717 1 -58.5594 1.14785 428.234 -58.5594 1.14785 428.234
1714 1 -60.3009 1.14303 430.103 -60.3009 1.14303 430.103
1999 1 -62.0423 1.13826 431.972 -62.0423 1.13826 431.972
1997 1 -63.7837 1.13354 433.841 -63.7837 1.13354 433.841
1164 1 -43.5644 1.16632 421.323 -43.5644 1.16632 421.323
1451 1 -45.3069 1.16215 423.191 -45.3069 1.16215 423.191
1448 1 -47.0489 1.15771 425.059 -47.0489 1.15771 425.059
1734 1 -48.7907 1.15307 426.927 -48.7907 1.15307 426.927
1731 1 -50.5323 1.14832 428.796 -50.5323 1.14832 428.796
2016 1 -52.2739 1.14354 430.665 -52.2739 1.14354 430.665
2012 1 -54.0153 1.13875 432.534 -54.0153 1.13875 432.534
2009 1 -55.7568 1.13398 434.402 -55.7568 1.13398 434.402
1746 1 -40.7622 1.15189 427.491 -40.7622 1.15189 427.491
1744 1 -42.5044 1.14758 429.359 -42.5044 1.14758 429.359
2030 1 -44.2463 1.14312 431.227 -44.2463 1.14312 431.227
2027 1 -45.988 1.13856 433.096 -45.988 1.13856 433.096
2325 1 -39.702 1.13313 435.527 -39.702 1.13313 435.527
1749 1 -39.2474 4.10014 428.924 -39.2474 4.10014 428.924
1425 1 -59.8473 4.11024 423.498 -59.8473 4.11024 423.498
1736 1 -47.2759 4.10141 428.361 -47.2759 4.10141 428.361
1142 1 -57.2354 1.90405 420.695 -57.2354 1.90405 420.695
1720 1 -57.0448 4.09649 429.667 -57.0448 4.09649 429.667
2005 1 -58.7862 4.09167 431.536 -58.7862 4.09167 431.536
2002 1 -60.5276 4.0869 433.405 -60.5276 4.0869 433.405
1169 1 -40.3068 4.1185 420.889 -40.3068 4.1185 420.889
1723 1 -55.3033 4.10136 427.798 -55.3033 4.10136 427.798
1440 1 -51.8204 4.11118 424.061 -51.8204 4.11118 424.061
1733 1 -49.0176 4.09673 430.229 -49.0176 4.09673 430.229
2018 1 -50.7591 4.09201 432.098 -50.7591 4.09201 432.098
2015 1 -52.5006 4.08727 433.967 -52.5006 4.08727 433.967
2036 1 -40.9896 4.09584 430.792 -40.9896 4.09584 430.792
2032 1 -42.7315 4.09142 432.66 -42.7315 4.09142 432.66
2326 1 -39.0582 1.86552 437.894 -39.0582 1.86552 437.894
1752 1 -37.5051 4.1043 427.056 -37.5051 4.1043 427.056
1457 1 -42.0495 4.11451 422.756 -42.0495 4.11451 422.756
2043 1 -36.2179 1.1418 431.79 -36.2179 1.1418 431.79
2286 1 -63.1397 1.86606 436.208 -63.1397 1.86606 436.208
2319 1 -43.1855 1.12412 439.264 -43.1855 1.12412 439.264
1436 1 -53.5619 4.10626 425.929 -53.5619 4.10626 425.929
1422 1 -61.5887 4.10537 425.367 -61.5887 4.10537 425.367
1173 1 -37.9206 0.427538 421.388 -37.9206 0.427538 421.388
2293 1 -59.2396 1.12449 438.14 -59.2396 1.12449 438.14
2289 1 -61.625 0.387231 437.642 -61.625 0.387231 437.642
2295 1 -57.7249 4.07309 439.573 -57.7249 4.07309 439.573
1465 1 -37.2773 1.16009 423.755 -37.2773 1.16009 423.755
2315 1 -45.571 0.387193 438.765 -45.571 0.387193 438.765
2331 1 -36.4453 4.08584 435.092 -36.4453 4.08584 435.092
2297 1 -56.8542 1.86172 438.639 -56.8542 1.86172 438.639
2324 1 -39.9291 4.077 438.828 -39.9291 4.077 438.828
2306 1 -51.2127 1.12461 438.702 -51.2127 1.12461 438.702
2285 1 -63.3664 0.382501 439.51 -63.3664 0.382501 439.51
1462 1 -39.0199 1.15605 425.623 -39.0199 1.15605 425.623
1751 1 -37.7327 2.62096 430.357 -37.7327 2.62096 430.357
2329 1 -37.3163 1.86994 436.026 -37.3163 1.86994 436.026
2042 1 -37.089 3.3534 432.724 -37.089 3.3534 432.724
2041 1 -37.96 1.13752 433.658 -37.96 1.13752 433.658
2593 1 -52.0834 3.336 439.636 -52.0834 3.336 439.636
2328 1 -37.5435 0.386422 439.327 -37.5435 0.386422 439.327
2301 1 -54.4688 2.5989 439.138 -54.4688 2.5989 439.138
1466 1 -36.406 3.37581 422.821 -36.406 3.37581 422.821
2298 1 -56.6275 3.34533 435.337 -56.6275 3.34533 435.337
2321 1 -42.3146 3.34012 438.33 -42.3146 3.34012 438.33
2313 1 -47.0857 1.86628 437.332 -47.0857 1.86628 437.332
2294 1 -58.3689 3.34058 437.206 -58.3689 3.34058 437.206
2304 1 -52.7274 2.60359 437.269 -52.7274 2.60359 437.269
2300 1 -55.1128 1.86644 436.77 -55.1128 1.86644 436.77
2290 1 -60.7543 2.60332 436.707 -60.7543 2.60332 436.707
2318 1 -43.8294 0.39178 436.896 -43.8294 0.39178 436.896
2327 1 -38.1873 4.08147 436.96 -38.1873 4.08147 436.96
2004 1 -59.0129 2.60807 434.838 -59.0129 2.60807 434.838
2013 1 -53.3714 1.87117 434.901 -53.3714 1.87117 434.901
2288 1 -62.269 4.08215 435.274 -62.269 4.08215 435.274
2037 1 -40.3458 0.400759 433.159 -40.3458 0.400759 433.159
1739 1 -45.534 4.10597 426.492 -45.534 4.10597 426.492
1753 1 -36.8615 0.409328 429.423 -36.8615 0.409328 429.423
2307 1 -50.9859 2.60829 435.4 -50.9859 2.60829 435.4
2314 1 -46.2149 4.08231 436.398 -46.2149 4.08231 436.398
2040 1 -38.6037 0.405102 431.291 -38.6037 0.405102 431.291
2320 1 -42.9585 2.60778 435.962 -42.9585 2.60778 435.962
2292 1 -59.8836 0.391968 435.773 -59.8836 0.391968 435.773
2311 1 -48.6004 3.34534 435.899 -48.6004 3.34534 435.899
2302 1 -54.2421 4.08253 435.836 -54.2421 4.08253 435.836
2296 1 -57.4982 1.12923 436.271 -57.4982 1.12923 436.271
1463 1 -38.792 2.63928 422.322 -38.792 2.63928 422.322
2287 1 -62.4957 2.59859 438.576 -62.4957 2.59859 438.576
2291 1 -60.1103 3.33585 439.075 -60.1103 3.33585 439.075
2317 1 -44.7002 2.60322 437.831 -44.7002 2.60322 437.831
2038 1 -39.4748 2.61667 432.225 -39.4748 2.61667 432.225
2305 1 -51.8567 0.392216 436.334 -51.8567 0.392216 436.334
2332 1 -35.8016 0.390838 437.459 -35.8016 0.390838 437.459
1709 1 -63.3302 4.10061 427.236 -63.3302 4.10061 427.236
1468 1 -35.5346 1.16409 421.887 -35.5346 1.16409 421.887
1454 1 -43.7919 4.11035 424.624 -43.7919 4.11035 424.624
1429 1 -58.106 4.11523 421.629 -58.106 4.11523 421.629
1133 1 -62.8765 2.6402 420.632 -62.8765 2.6402 420.632
1175 1 -37.0493 2.64325 420.454 -37.0493 2.64325 420.454
2616 1 -38.6414 1.11431 443.563 -38.6414 1.11431 443.563
2901 1 -40.383 1.10973 445.432 -40.383 1.10973 445.432
2907 1 -37.1267 4.06272 444.997 -37.1267 4.06272 444.997
3194 1 -38.2243 0.363064 449.233 -38.2243 0.363064 449.233
2587 1 -55.3396 0.382829 440.072 -55.3396 0.382829 440.072
2597 1 -49.698 4.07304 440.135 -49.698 4.07304 440.135
2584 1 -57.081 0.378155 441.941 -57.081 0.378155 441.941
2581 1 -58.8223 0.373488 443.81 -58.8223 0.373488 443.81
2868 1 -60.5636 0.36881 445.679 -60.5636 0.36881 445.679
2865 1 -62.3049 0.364098 447.548 -62.3049 0.364098 447.548
2601 1 -47.3126 0.382571 440.634 -47.3126 0.382571 440.634
2598 1 -49.0541 0.377937 442.503 -49.0541 0.377937 442.503
2885 1 -50.7955 0.373311 444.372 -50.7955 0.373311 444.372
2882 1 -52.537 0.368714 446.241 -52.537 0.368714 446.241
2879 1 -54.2784 0.364153 448.11 -54.2784 0.364153 448.11
2612 1 -41.0269 0.377371 443.065 -41.0269 0.377371 443.065
2898 1 -42.7684 0.372765 444.933 -42.7684 0.372765 444.933
2895 1 -44.5099 0.36813 446.802 -44.5099 0.36813 446.802
3180 1 -46.2513 0.363497 448.671 -46.2513 0.363497 448.671
2576 1 -61.8517 3.33113 440.944 -61.8517 3.33113 440.944
2574 1 -63.593 3.32639 442.813 -63.593 3.32639 442.813
2589 1 -53.8249 3.33134 441.505 -53.8249 3.33134 441.505
2586 1 -55.5663 3.3267 443.374 -55.5663 3.3267 443.374
2874 1 -57.3077 3.32208 445.243 -57.3077 3.32208 445.243
2871 1 -59.049 3.31746 447.112 -59.049 3.31746 447.112
3155 1 -60.7903 3.31282 448.981 -60.7903 3.31282 448.981
2607 1 -44.0563 3.33555 440.198 -44.0563 3.33555 440.198
2604 1 -45.7979 3.33094 442.067 -45.7979 3.33094 442.067
2600 1 -47.5393 3.32631 443.936 -47.5393 3.32631 443.936
2887 1 -49.2808 3.32168 445.805 -49.2808 3.32168 445.805
2884 1 -51.0223 3.31709 447.674 -51.0223 3.31709 447.674
3168 1 -52.7637 3.31253 449.543 -52.7637 3.31253 449.543
2900 1 -41.2537 3.32115 446.366 -41.2537 3.32115 446.366
2897 1 -42.9951 3.31651 448.235 -42.9951 3.31651 448.235
2582 1 -58.5956 1.85702 440.508 -58.5956 1.85702 440.508
2579 1 -60.337 1.85231 442.377 -60.337 1.85231 442.377
2866 1 -62.0783 1.84759 444.246 -62.0783 1.84759 444.246
2578 1 -60.981 1.11977 440.009 -60.981 1.11977 440.009
2595 1 -50.5688 1.85699 441.07 -50.5688 1.85699 441.07
2592 1 -52.3102 1.85235 442.939 -52.3102 1.85235 442.939
2880 1 -54.0516 1.84774 444.808 -54.0516 1.84774 444.808
2877 1 -55.7931 1.84316 446.676 -55.7931 1.84316 446.676
2873 1 -57.5344 1.83859 448.545 -57.5344 1.83859 448.545
2609 1 -42.5416 1.85646 441.631 -42.5416 1.85646 441.631
2606 1 -44.2831 1.85185 443.5 -44.2831 1.85185 443.5
2892 1 -46.0246 1.84722 445.369 -46.0246 1.84722 445.369
2890 1 -47.7661 1.84259 447.238 -47.7661 1.84259 447.238
3174 1 -49.5075 1.83799 449.107 -49.5075 1.83799 449.107
2618 1 -37.7705 3.33031 442.629 -37.7705 3.33031 442.629
2585 1 -56.2103 2.59422 441.007 -56.2103 2.59422 441.007
2583 1 -57.9516 2.58955 442.876 -57.9516 2.58955 442.876
2870 1 -59.693 2.58488 444.745 -59.693 2.58488 444.745
2867 1 -61.4343 2.58019 446.613 -61.4343 2.58019 446.613
2863 1 -63.1755 2.57545 448.482 -63.1755 2.57545 448.482
2599 1 -48.1833 2.59398 441.568 -48.1833 2.59398 441.568
2596 1 -49.9248 2.58935 443.437 -49.9248 2.58935 443.437
2883 1 -51.6662 2.58473 445.306 -51.6662 2.58473 445.306
2881 1 -53.4077 2.58016 447.175 -53.4077 2.58016 447.175
3164 1 -55.1491 2.57561 449.044 -55.1491 2.57561 449.044
2610 1 -41.8977 2.5888 443.999 -41.8977 2.5888 443.999
2896 1 -43.6392 2.58418 445.868 -43.6392 2.58418 445.868
2893 1 -45.3806 2.57954 447.737 -45.3806 2.57954 447.737
3178 1 -47.122 2.57492 449.605 -47.122 2.57492 449.605
2575 1 -62.7223 1.11504 441.878 -62.7223 1.11504 441.878
2591 1 -52.9542 1.11994 440.571 -52.9542 1.11994 440.571
2588 1 -54.6956 1.11529 442.44 -54.6956 1.11529 442.44
2876 1 -56.437 1.11066 444.309 -56.437 1.11066 444.309
2872 1 -58.1784 1.10604 446.178 -58.1784 1.10604 446.178
2869 1 -59.9197 1.10142 448.047 -59.9197 1.10142 448.047
2605 1 -44.9271 1.11952 441.133 -44.9271 1.11952 441.133
2602 1 -46.6686 1.1149 443.001 -46.6686 1.1149 443.001
2889 1 -48.4101 1.11027 444.87 -48.4101 1.11027 444.87
2886 1 -50.1515 1.10565 446.739 -50.1515 1.10565 446.739
3170 1 -51.893 1.10108 448.608 -51.893 1.10108 448.608
2899 1 -42.1244 1.1051 447.301 -42.1244 1.1051 447.301
3184 1 -43.8658 1.10046 449.17 -43.8658 1.10046 449.17
2580 1 -59.4663 4.06839 441.442 -59.4663 4.06839 441.442
2577 1 -61.2076 4.06368 443.311 -61.2076 4.06368 443.311
2864 1 -62.9489 4.05895 445.18 -62.9489 4.05895 445.18
2862 1 -63.8195 1.84284 446.115 -63.8195 1.84284 446.115
2594 1 -51.4395 4.06839 442.004 -51.4395 4.06839 442.004
2590 1 -53.1809 4.06377 443.873 -53.1809 4.06377 443.873
2878 1 -54.9224 4.05917 445.742 -54.9224 4.05917 445.742
2875 1 -56.6638 4.0546 447.611 -56.6638 4.0546 447.611
3159 1 -58.4051 4.05004 449.48 -58.4051 4.05004 449.48
2611 1 -41.6708 4.07247 440.697 -41.6708 4.07247 440.697
2608 1 -43.4124 4.06788 442.566 -43.4124 4.06788 442.566
2894 1 -45.1539 4.06326 444.435 -45.1539 4.06326 444.435
2891 1 -46.8953 4.05863 446.303 -46.8953 4.05863 446.303
2888 1 -48.6368 4.05401 448.172 -48.6368 4.05401 448.172
2904 1 -38.8683 4.05813 446.865 -38.8683 4.05813 446.865
2621 1 -36.0288 3.3348 440.761 -36.0288 3.3348 440.761
2617 1 -38.4144 2.59791 440.262 -38.4144 2.59791 440.262
2614 1 -40.1561 2.59338 442.13 -40.1561 2.59338 442.13
2908 1 -36.4828 0.367688 447.364 -36.4828 0.367688 447.364
2619 1 -36.8997 1.11884 441.695 -36.8997 1.11884 441.695
2906 1 -37.3536 2.57911 448.298 -37.3536 2.57911 448.298
2905 1 -37.9975 1.84671 445.931 -37.9975 1.84671 445.931
2620 1 -36.2559 1.85127 444.062 -36.2559 1.85127 444.062
3190 1 -40.6097 4.0535 448.734 -40.6097 4.0535 448.734
2902 1 -39.739 1.8421 447.8 -39.739 1.8421 447.8
2903 1 -39.5122 3.32575 444.498 -39.5122 3.32575 444.498
2615 1 -39.2852 0.381929 441.196 -39.2852 0.381929 441.196
2909 1 -35.6121 2.58371 446.43 -35.6121 2.58371 446.43
14 1 -54.9943 4.19378 400.078 -54.9943 4.19378 400.078
7 1 -59.7043 2.68795 399.168 -59.7043 2.68795 399.168
25 1 -46.9654 4.18392 400.552 -46.9654 4.18392 400.552
38 1 -38.9319 4.14277 401.068 -38.9319 4.14277 401.068
23 1 -48.7099 4.16356 402.415 -48.7099 4.16356 402.415
287 1 -52.1926 4.14648 406.121 -52.1926 4.14648 406.121
878 1 -43.1079 4.13255 414.722 -43.1079 4.13255 414.722
579 1 -49.3958 4.13872 412.29 -49.3958 4.13872 412.29
585 1 -45.9082 4.14716 408.557 -45.9082 4.14716 408.557
290 1 -50.4535 4.15167 404.254 -50.4535 4.15167 404.254
11 1 -56.7293 4.14443 401.849 -56.7293 4.14443 401.849
595 1 -39.6218 4.14069 410.986 -39.6218 4.14069 410.986
1134 1 -62.6495 4.12379 417.329 -62.6495 4.12379 417.329
283 1 -53.9386 4.14561 407.988 -53.9386 4.14561 407.988
582 1 -47.6517 4.14259 410.424 -47.6517 4.14259 410.424
276 1 -58.4838 4.15985 403.7 -58.4838 4.15985 403.7
569 1 -55.6848 4.14466 409.852 -55.6848 4.14466 409.852
847 1 -60.9083 4.12894 415.459 -60.9083 4.12894 415.459
556 1 -63.71 4.14257 409.287 -63.71 4.14257 409.287
272 1 -60.2363 4.16169 405.544 -60.2363 4.16169 405.544
3 1 -61.5279 2.70253 400.847 -61.5279 2.70253 400.847
35 1 -40.6759 4.16182 402.941 -40.6759 4.16182 402.941
598 1 -37.8791 4.14517 409.118 -37.8791 4.14517 409.118
850 1 -59.1675 4.13448 413.589 -59.1675 4.13448 413.589