ITEM: TIMESTEP
0
ITEM: NUMBER OF ATOMS
4630
ITEM: BOX BOUNDS xy xz yz pp pp pp
-6.3904022097338213e+01 1.0692305394553821e+02 0.0000000000000000e+00
0.0000000000000000e+00 4.4274527100805940e+00 0.0000000000000000e+00
3.8000000000000000e+02 5.0000000000000000e+02 0.0000000000000000e+00
ITEM: ATOMS id type x y z xu yu zu
27 1 -46.0317 2.00689 399.691 -46.0317 2.00689 399.691
36 1 -40.3926 1.26611 399.749 -40.3926 1.26611 399.749
31 1 -43.6338 2.70429 400.129 -43.6338 2.70429 400.129
22 1 -49.2496 3.45694 400.095 -49.2496 3.45694 400.095
20 1 -50.1382 1.23438 400.936 -50.1382 1.23438 400.936
40 1 -37.9967 1.96469 400.19 -37.9967 1.96469 400.19
34 1 -41.2582 3.46435 400.58 -41.2582 3.46435 400.58
17 1 -52.5178 0.484645 400.492 -52.5178 0.484645 400.492
9 1 -58.1249 1.17754 400.401 -58.1249 1.17754 400.401
43 1 -35.6218 2.72553 400.641 -35.6218 2.72553 400.641
12 1 -55.775 1.98441 400.881 -55.775 1.98441 400.881
5 1 -60.5149 0.496038 399.939 -60.5149 0.496038 399.939
29 1 -44.5004 0.475613 400.98 -44.5004 0.475613 400.98
853 1 -57.5645 2.66802 415.008 -57.5645 2.66802 415.008
873 1 -46.2903 1.19277 415.14 -46.2903 1.19277 415.14
865 1 -50.4153 0.451522 416.508 -50.4153 0.451522 416.508
1174 1 -37.6262 1.92121 418.072 -37.6262 1.92121 418.072
883 1 -40.6522 0.453795 415.204 -40.6522 0.453795 415.204
863 1 -51.9289 1.93147 415.073 -51.9289 1.93147 415.073
315 1 -35.8488 1.22344 403.922 -35.8488 1.22344 403.922
307 1 -40.8398 2.69344 406.23 -40.8398 2.69344 406.23
1150 1 -52.1553 0.445743 418.377 -52.1553 0.445743 418.377
855 1 -56.0515 1.18839 416.443 -56.0515 1.18839 416.443
310 1 -39.0993 2.70056 404.365 -39.0993 2.70056 404.365
871 1 -47.161 3.40406 416.074 -47.161 3.40406 416.074
16 1 -53.3843 2.68298 401.344 -53.3843 2.68298 401.344
309 1 -39.326 1.21348 407.662 -39.326 1.21348 407.662
1156 1 -48.9018 3.39891 417.942 -48.9018 3.39891 417.942
867 1 -49.545 2.66789 415.574 -49.545 2.66789 415.574
1159 1 -46.518 4.13516 418.442 -46.518 4.13516 418.442
1168 1 -40.8801 3.3962 418.507 -40.8801 3.3962 418.507
1170 1 -40.0097 1.18497 417.572 -40.0097 1.18497 417.572
594 1 -40.1964 3.42446 408.598 -40.1964 3.42446 408.598
37 1 -39.7417 1.96982 402.022 -39.7417 1.96982 402.022
851 1 -58.4339 0.451017 415.943 -58.4339 0.451017 415.943
857 1 -55.182 3.40532 415.508 -55.182 3.40532 415.508
592 1 -41.0666 1.20809 409.532 -41.0666 1.20809 409.532
849 1 -59.3034 2.66153 416.878 -59.3034 2.66153 416.878
877 1 -43.9064 1.92886 415.639 -43.9064 1.92886 415.639
1143 1 -56.921 3.39891 417.378 -56.921 3.39891 417.378
1140 1 -58.66 3.39257 419.248 -58.66 3.39257 419.248
845 1 -61.6857 1.92416 416.379 -61.6857 1.92416 416.379
875 1 -44.777 4.14014 416.574 -44.777 4.14014 416.574
886 1 -38.9113 0.458951 413.335 -38.9113 0.458951 413.335
891 1 -35.6578 3.41168 412.899 -35.6578 3.41168 412.899
39 1 -38.2336 0.482538 403.416 -38.2336 0.482538 403.416
1177 1 -36.1132 0.4412 419.506 -36.1132 0.4412 419.506
1167 1 -41.7506 1.17997 419.442 -41.7506 1.17997 419.442
8 1 -59.0024 3.43182 401.356 -59.0024 3.43182 401.356
869 1 -48.0315 1.18783 417.008 -48.0315 1.18783 417.008
1136 1 -61.0425 2.65527 418.749 -61.0425 2.65527 418.749
1162 1 -45.0047 2.65503 419.877 -45.0047 2.65503 419.877
15 1 -54.2579 0.487328 402.327 -54.2579 0.487328 402.327
280 1 -56.0028 0.478827 404.171 -56.0028 0.478827 404.171
277 1 -57.7559 0.485112 406.029 -57.7559 0.485112 406.029
273 1 -59.4974 0.478778 407.894 -59.4974 0.478778 407.894
560 1 -61.234 0.469524 409.766 -61.234 0.469524 409.766
557 1 -62.9722 0.462108 411.639 -62.9722 0.462108 411.639
26 1 -46.2431 0.492112 402.857 -46.2431 0.492112 402.857
294 1 -47.9879 0.488096 404.734 -47.9879 0.488096 404.734
291 1 -49.7296 0.477796 406.601 -49.7296 0.477796 406.601
576 1 -51.4712 0.471533 408.468 -51.4712 0.471533 408.468
573 1 -53.2145 0.468169 410.335 -53.2145 0.468169 410.335
570 1 -54.9559 0.463712 412.202 -54.9559 0.463712 412.202
854 1 -56.6952 0.457565 414.072 -56.6952 0.457565 414.072
305 1 -41.7088 0.477376 407.164 -41.7088 0.477376 407.164
589 1 -43.45 0.471983 409.034 -43.45 0.471983 409.034
586 1 -45.1912 0.466572 410.903 -45.1912 0.466572 410.903
872 1 -46.9327 0.461481 412.772 -46.9327 0.461481 412.772
599 1 -37.1706 0.464306 411.465 -37.1706 0.464306 411.465
1132 1 -63.425 1.91807 418.25 -63.425 1.91807 418.25
4 1 -60.7935 3.45876 403.143 -60.7935 3.45876 403.143
268 1 -62.5223 3.43614 405.015 -62.5223 3.43614 405.015
1152 1 -51.2854 2.66242 417.442 -51.2854 2.66242 417.442
19 1 -51.0192 3.42704 401.859 -51.0192 3.42704 401.859
286 1 -52.7504 3.4254 403.719 -52.7504 3.4254 403.719
282 1 -54.4917 3.42703 405.596 -54.4917 3.42703 405.596
279 1 -56.2405 3.42846 407.463 -56.2405 3.42846 407.463
565 1 -57.983 3.4247 409.33 -57.983 3.4247 409.33
563 1 -59.7211 3.41726 411.201 -59.7211 3.41726 411.201
846 1 -61.4595 3.41013 413.073 -61.4595 3.41013 413.073
32 1 -42.9913 3.43896 402.445 -42.9913 3.43896 402.445
300 1 -44.7348 3.43893 404.305 -44.7348 3.43893 404.305
297 1 -46.477 3.43291 406.168 -46.477 3.43291 406.168
293 1 -48.2173 3.42663 408.036 -48.2173 3.42663 408.036
578 1 -49.9587 3.42077 409.904 -49.9587 3.42077 409.904
575 1 -51.7012 3.41629 411.771 -51.7012 3.41629 411.771
860 1 -53.4424 3.41135 413.638 -53.4424 3.41135 413.638
591 1 -41.9372 3.41908 410.467 -41.9372 3.41908 410.467
588 1 -43.6782 3.4139 412.336 -43.6782 3.4139 412.336
874 1 -45.4196 3.40892 414.205 -45.4196 3.40892 414.205
10 1 -57.5084 1.94588 402.746 -57.5084 1.94588 402.746
274 1 -59.2743 1.96937 404.587 -59.2743 1.96937 404.587
271 1 -61.0111 1.95901 406.456 -61.0111 1.95901 406.456
558 1 -62.7462 1.94839 408.331 -62.7462 1.94839 408.331
24 1 -47.7747 1.96316 401.452 -47.7747 1.96316 401.452
21 1 -49.507 1.96459 403.296 -49.507 1.96459 403.296
288 1 -51.24 1.95558 405.168 -51.24 1.95558 405.168
285 1 -52.9823 1.94982 407.036 -52.9823 1.94982 407.036
571 1 -54.7277 1.94791 408.9 -54.7277 1.94791 408.9
568 1 -56.4695 1.94394 410.767 -56.4695 1.94394 410.767
852 1 -58.2083 1.93738 412.637 -58.2083 1.93738 412.637
848 1 -59.9468 1.93058 414.508 -59.9468 1.93058 414.508
306 1 -41.4843 1.96171 403.86 -41.4843 1.96171 403.86
302 1 -43.2226 1.95675 405.729 -43.2226 1.95675 405.729
299 1 -44.9631 1.95226 407.599 -44.9631 1.95226 407.599
583 1 -46.7041 1.94671 409.469 -46.7041 1.94671 409.469
581 1 -48.4458 1.94129 411.338 -48.4458 1.94129 411.338
866 1 -50.1879 1.93657 413.205 -50.1879 1.93657 413.205
880 1 -42.1652 1.93385 413.77 -42.1652 1.93385 413.77
312 1 -37.5867 1.21859 405.79 -37.5867 1.21859 405.79
2 1 -62.3198 0.512834 401.708 -62.3198 0.512834 401.708
13 1 -55.1234 2.69414 403.223 -55.1234 2.69414 403.223
278 1 -56.8774 2.69533 405.096 -56.8774 2.69533 405.096
275 1 -58.6275 2.69664 406.958 -58.6275 2.69664 406.958
562 1 -60.3653 2.68767 408.83 -60.3653 2.68767 408.83
559 1 -62.1028 2.67934 410.702 -62.1028 2.67934 410.702
1166 1 -42.621 3.39119 420.376 -42.621 3.39119 420.376
889 1 -36.5281 1.19529 413.834 -36.5281 1.19529 413.834
28 1 -45.3763 2.70837 401.963 -45.3763 2.70837 401.963
296 1 -47.1214 2.70226 403.8 -47.1214 2.70226 403.8
292 1 -48.8599 2.69663 405.666 -48.8599 2.69663 405.666
289 1 -50.5996 2.68847 407.536 -50.5996 2.68847 407.536
574 1 -52.3427 2.68376 409.403 -52.3427 2.68376 409.403
572 1 -54.0856 2.68001 411.269 -54.0856 2.68001 411.269
856 1 -55.8257 2.67452 413.137 -55.8257 2.67452 413.137
303 1 -42.5799 2.68801 408.099 -42.5799 2.68801 408.099
587 1 -44.3207 2.6829 409.968 -44.3207 2.6829 409.968
584 1 -46.0619 2.67769 411.837 -46.0619 2.67769 411.837
870 1 -47.8036 2.67279 413.706 -47.8036 2.67279 413.706
6 1 -59.9071 1.23953 402.225 -59.9071 1.23953 402.225
270 1 -61.6581 1.23288 404.074 -61.6581 1.23288 404.074
267 1 -63.3883 1.21719 405.957 -63.3883 1.21719 405.957
890 1 -35.8855 1.92637 416.202 -35.8855 1.92637 416.202
18 1 -51.875 1.21558 402.807 -51.875 1.21558 402.807
284 1 -53.6184 1.21588 404.672 -53.6184 1.21588 404.672
281 1 -55.367 1.21448 406.533 -55.367 1.21448 406.533
567 1 -57.113 1.21399 408.397 -57.113 1.21399 408.397
564 1 -58.8523 1.20738 410.266 -58.8523 1.20738 410.266
561 1 -60.5903 1.19988 412.138 -60.5903 1.19988 412.138
844 1 -62.329 1.19311 414.009 -62.329 1.19311 414.009
33 1 -42.1413 1.22501 401.506 -42.1413 1.22501 401.506
30 1 -43.8688 1.22078 403.356 -43.8688 1.22078 403.356
298 1 -45.606 1.22191 405.23 -45.606 1.22191 405.23
295 1 -47.3467 1.21637 407.102 -47.3467 1.21637 407.102
580 1 -49.0878 1.20957 408.97 -49.0878 1.20957 408.97
577 1 -50.8301 1.2046 410.837 -50.8301 1.2046 410.837
862 1 -52.5721 1.2002 412.704 -52.5721 1.2002 412.704
590 1 -42.8076 1.20281 411.402 -42.8076 1.20281 411.402
876 1 -44.5489 1.19766 413.271 -44.5489 1.19766 413.271
1163 1 -44.1343 0.443841 418.942 -44.1343 0.443841 418.942
1153 1 -50.6418 3.39326 419.812 -50.6418 3.39326 419.812
311 1 -38.4555 3.4306 406.728 -38.4555 3.4306 406.728
42 1 -36.5054 0.48601 401.568 -36.5054 0.48601 401.568
1135 1 -61.9121 0.438495 419.685 -61.9121 0.438495 419.685
1171 1 -39.367 1.91615 419.941 -39.367 1.91615 419.941
1139 1 -59.5295 1.17574 420.184 -59.5295 1.17574 420.184
601 1 -36.3005 2.68071 410.53 -36.3005 2.68071 410.53
313 1 -36.7133 3.43708 404.857 -36.7133 3.43708 404.857
858 1 -54.3123 1.19469 414.573 -54.3123 1.19469 414.573
868 1 -48.6744 0.456673 414.64 -48.6744 0.456673 414.64
1147 1 -54.5383 4.13618 417.877 -54.5383 4.13618 417.877
843 1 -63.1985 3.40369 414.945 -63.1985 3.40369 414.945
593 1 -40.4242 1.93901 411.901 -40.4242 1.93901 411.901
308 1 -39.9691 0.482882 405.291 -39.9691 0.482882 405.291
861 1 -52.7989 4.14234 416.008 -52.7989 4.14234 416.008
1158 1 -47.3883 1.91881 419.377 -47.3883 1.91881 419.377
884 1 -39.7817 2.67008 414.269 -39.7817 2.67008 414.269
881 1 -41.5227 2.66501 416.139 -41.5227 2.66501 416.139
885 1 -39.1392 3.40122 416.638 -39.1392 3.40122 416.638
859 1 -53.6687 1.92557 416.942 -53.6687 1.92557 416.942
596 1 -38.6836 1.9443 410.031 -38.6836 1.9443 410.031
879 1 -42.3933 0.448797 417.073 -42.3933 0.448797 417.073
1172 1 -38.4966 4.13239 419.006 -38.4966 4.13239 419.006
1154 1 -49.7719 1.18242 418.877 -49.7719 1.18242 418.877
887 1 -38.2688 1.19005 415.703 -38.2688 1.19005 415.703
597 1 -38.041 2.6753 412.4 -38.041 2.6753 412.4
1161 1 -45.6476 1.92396 417.508 -45.6476 1.92396 417.508
1138 1 -60.1729 0.444639 417.814 -60.1729 0.444639 417.814
1149 1 -53.025 2.65642 419.312 -53.025 2.65642 419.312
41 1 -37.3559 2.70031 402.506 -37.3559 2.70031 402.506
888 1 -37.3984 3.40637 414.768 -37.3984 3.40637 414.768
1165 1 -43.2638 2.66006 418.008 -43.2638 2.66006 418.008
1141 1 -57.7904 1.18199 418.313 -57.7904 1.18199 418.313
1145 1 -55.4078 1.9193 418.813 -55.4078 1.9193 418.813
600 1 -36.9436 1.94971 408.161 -36.9436 1.94971 408.161
1148 1 -53.8946 0.439604 420.247 -53.8946 0.439604 420.247
882 1 -41.2947 4.15012 412.836 -41.2947 4.15012 412.836
1157 1 -48.2585 4.12981 420.311 -48.2585 4.12981 420.311
1144 1 -56.2774 4.12987 419.748 -56.2774 4.12987 419.748
602 1 -35.4302 0.469878 409.595 -35.4302 0.469878 409.595
1131 1 -63.6514 0.432541 421.556 -63.6514 0.432541 421.556
1755 1 -35.9254 2.62954 428.481 -35.9254 2.62954 428.481
1460 1 -40.4648 2.64219 424.179 -40.4648 2.64219 424.179
2308 1 -50.2599 3.33943 437.768 -50.2599 3.33943 437.768
2316 1 -45.2679 1.87108 435.462 -45.2679 1.87108 435.462
2312 1 -47.8771 4.07617 438.267 -47.8771 4.07617 438.267
1464 1 -38.0814 3.37844 424.678 -38.0814 3.37844 424.678
1461 1 -39.5946 0.431036 423.244 -39.5946 0.431036 423.244
2039 1 -38.7624 3.34985 434.59 -38.7624 3.34985 434.59
2613 1 -40.7286 1.8587 439.764 -40.7286 1.8587 439.764
1467 1 -35.6981 4.11472 425.178 -35.6981 4.11472 425.178
2603 1 -46.364 2.59626 439.701 -46.364 2.59626 439.701
1443 1 -49.9983 4.12408 422.181 -49.9983 4.12408 422.181
1748 1 -39.8218 3.37324 426.548 -39.8218 3.37324 426.548
2023 1 -47.6508 1.1344 434.962 -47.6508 1.1344 434.962
2310 1 -48.7468 1.85956 439.202 -48.7468 1.85956 439.202
1151 1 -51.5117 1.17656 420.747 -51.5117 1.17656 420.747
2303 1 -53.5123 0.385985 438.204 -53.5123 0.385985 438.204
2299 1 -55.895 4.07655 437.705 -55.895 4.07655 437.705
2033 1 -42.0152 0.396796 435.026 -42.0152 0.396796 435.026
1433 1 -55.6339 0.433397 422.117 -55.6339 0.433397 422.117
1430 1 -57.3731 0.427248 423.988 -57.3731 0.427248 423.988
1426 1 -59.1123 0.421187 425.858 -59.1123 0.421187 425.858
1713 1 -60.8516 0.415211 427.729 -60.8516 0.415211 427.729
1710 1 -62.5909 0.409306 429.599 -62.5909 0.409306 429.599
2330 1 -36.6061 2.60092 438.393 -36.6061 2.60092 438.393
1160 1 -45.8749 0.438693 420.811 -45.8749 0.438693 420.811
1447 1 -47.6151 0.433214 422.681 -47.6151 0.433214 422.681
1444 1 -49.3548 0.427456 424.55 -49.3548 0.427456 424.55
1730 1 -51.0943 0.421545 426.42 -51.0943 0.421545 426.42
1727 1 -52.8337 0.415579 428.291 -52.8337 0.415579 428.291
1724 1 -54.573 0.409611 430.161 -54.573 0.409611 430.161
2008 1 -56.3123 0.403662 432.031 -56.3123 0.403662 432.031
2006 1 -58.0516 0.397741 433.902 -58.0516 0.397741 433.902
1458 1 -41.335 0.425848 425.114 -41.335 0.425848 425.114
1743 1 -43.0752 0.420481 426.983 -43.0752 0.420481 426.983
1740 1 -44.815 0.414931 428.853 -44.815 0.414931 428.853
2026 1 -46.5547 0.409244 430.723 -46.5547 0.409244 430.723
2022 1 -48.2942 0.403471 432.593 -48.2942 0.403471 432.593
2019 1 -50.0336 0.397654 434.463 -50.0336 0.397654 434.463
2309 1 -49.3902 1.12861 436.833 -49.3902 1.12861 436.833
1137 1 -60.3991 3.3864 421.119 -60.3991 3.3864 421.119
1421 1 -62.1384 3.38038 422.99 -62.1384 3.38038 422.99
1439 1 -52.3814 3.38726 421.682 -52.3814 3.38726 421.682
1435 1 -54.1207 3.38115 423.552 -54.1207 3.38115 423.552
1432 1 -55.86 3.37505 425.422 -55.86 3.37505 425.422
1719 1 -57.5993 3.36901 427.293 -57.5993 3.36901 427.293
1716 1 -59.3385 3.36302 429.163 -59.3385 3.36302 429.163
2001 1 -61.0778 3.35709 431.033 -61.0778 3.35709 431.033
1998 1 -62.8171 3.35121 432.904 -62.8171 3.35121 432.904
2323 1 -40.5021 3.34429 436.46 -40.5021 3.34429 436.46
1453 1 -44.3616 3.38603 422.245 -44.3616 3.38603 422.245
1450 1 -46.1017 3.38061 424.115 -46.1017 3.38061 424.115
1446 1 -47.8415 3.37493 425.985 -47.8415 3.37493 425.985
1732 1 -49.5811 3.36911 427.855 -49.5811 3.36911 427.855
1729 1 -51.3205 3.36322 429.725 -51.3205 3.36322 429.725
2014 1 -53.0599 3.3573 431.595 -53.0599 3.3573 431.595
2011 1 -54.7992 3.35139 433.466 -54.7992 3.35139 433.466
1745 1 -41.5619 3.36789 428.417 -41.5619 3.36789 428.417
1742 1 -43.3018 3.36237 430.287 -43.3018 3.36237 430.287
2028 1 -45.0415 3.35673 432.157 -45.0415 3.35673 432.157
2025 1 -46.7811 3.35101 434.027 -46.7811 3.35101 434.027
1427 1 -58.8861 1.90684 422.553 -58.8861 1.90684 422.553
1424 1 -60.6254 1.90079 424.424 -60.6254 1.90079 424.424
1711 1 -62.3647 1.89485 426.295 -62.3647 1.89485 426.295
2322 1 -41.3719 1.12775 437.395 -41.3719 1.12775 437.395
1750 1 -38.3087 1.8932 427.982 -38.3087 1.8932 427.982
1155 1 -49.1284 1.91326 421.246 -49.1284 1.91326 421.246
1441 1 -50.8681 1.90739 423.116 -50.8681 1.90739 423.116
1438 1 -52.6075 1.90138 424.986 -52.6075 1.90138 424.986
1725 1 -54.3468 1.89534 426.856 -54.3468 1.89534 426.856
1722 1 -56.0861 1.88933 428.727 -56.0861 1.88933 428.727
1718 1 -57.8254 1.88336 430.597 -57.8254 1.88336 430.597
2003 1 -59.5647 1.87742 432.468 -59.5647 1.87742 432.468
2000 1 -61.304 1.87153 434.338 -61.304 1.87153 434.338
1459 1 -41.1078 1.9111 421.81 -41.1078 1.9111 421.81
1455 1 -42.8483 1.90593 423.679 -42.8483 1.90593 423.679
1452 1 -44.5884 1.90054 425.549 -44.5884 1.90054 425.549
1737 1 -46.3283 1.89494 427.419 -46.3283 1.89494 427.419
1735 1 -48.0679 1.88919 429.289 -48.0679 1.88919 429.289
2020 1 -49.8074 1.88336 431.159 -49.8074 1.88336 431.159
2017 1 -51.5468 1.8775 433.029 -51.5468 1.8775 433.029
2034 1 -41.7887 1.88237 431.721 -41.7887 1.88237 431.721
2031 1 -43.5284 1.87677 433.591 -43.5284 1.87677 433.591
2029 1 -44.3982 4.08766 434.526 -44.3982 4.08766 434.526
1146 1 -54.7643 2.65022 421.182 -54.7643 2.65022 421.182
1431 1 -56.5035 2.64404 423.053 -56.5035 2.64404 423.053
1428 1 -58.2427 2.63793 424.923 -58.2427 2.63793 424.923
1715 1 -59.982 2.63192 426.794 -59.982 2.63192 426.794
1712 1 -61.7213 2.62598 428.664 -61.7213 2.62598 428.664
1708 1 -63.4606 2.6201 430.535 -63.4606 2.6201 430.535
1747 1 -40.0488 1.88785 429.852 -40.0488 1.88785 429.852
1449 1 -46.745 2.64972 421.746 -46.745 2.64972 421.746
1445 1 -48.485 2.64409 423.615 -48.485 2.64409 423.615
1442 1 -50.2246 2.63824 425.485 -50.2246 2.63824 425.485
1728 1 -51.964 2.63229 427.356 -51.964 2.63229 427.356
1726 1 -53.7034 2.62632 429.226 -53.7034 2.62632 429.226
2010 1 -55.4427 2.62036 431.096 -55.4427 2.62036 431.096
2007 1 -57.182 2.61442 432.967 -57.182 2.61442 432.967
1456 1 -42.2051 2.63692 426.048 -42.2051 2.63692 426.048
1741 1 -43.9451 2.63145 427.918 -43.9451 2.63145 427.918
1738 1 -45.6849 2.62583 429.788 -45.6849 2.62583 429.788
2024 1 -47.4245 2.62009 431.658 -47.4245 2.62009 431.658
2021 1 -49.1639 2.61429 433.528 -49.1639 2.61429 433.528
2035 1 -41.1454 2.61332 434.091 -41.1454 2.61332 434.091
1754 1 -36.5683 1.89842 426.112 -36.5683 1.89842 426.112
1423 1 -61.2688 1.16965 422.054 -61.2688 1.16965 422.054
1420 1 -63.0081 1.1637 423.925 -63.0081 1.1637 423.925
2044 1 -35.5094 1.87535 434.154 -35.5094 1.87535 434.154
1437 1 -53.2511 1.17049 422.617 -53.2511 1.17049 422.617
1434 1 -54.9903 1.16437 424.487 -54.9903 1.16437 424.487
1721 1 -56.7296 1.1583 426.357 -56.7296 1.1583 426.357
1717 1 -58.4689 1.15228 428.228 -58.4689 1.15228 428.228
1714 1 -60.2082 1.14632 430.098 -60.2082 1.14632 430.098
1999 1 -61.9475 1.14042 431.969 -61.9475 1.14042 431.969
1997 1 -63.6868 1.13456 433.839 -63.6868 1.13456 433.839
1164 1 -43.4913 1.17491 421.311 -43.4913 1.17491 421.311
1451 1 -45.2317 1.16963 423.18 -45.2317 1.16963 423.18
1448 1 -46.9717 1.16407 425.05 -46.9717 1.16407 425.05
1734 1 -48.7113 1.15831 426.92 -48.7113 1.15831 426.92
1731 1 -50.4508 1.15244 428.79 -50.4508 1.15244 428.79
2016 1 -52.1902 1.14653 430.66 -52.1902 1.14653 430.66
2012 1 -53.9296 1.14062 432.53 -53.9296 1.14062 432.53
2009 1 -55.6688 1.13471 434.401 -55.6688 1.13471 434.401
1746 1 -40.6919 1.15686 427.483 -40.6919 1.15686 427.483
1744 1 -42.4319 1.15142 429.352 -42.4319 1.15142 429.352
2030 1 -44.1717 1.14584 431.222 -44.1717 1.14584 431.222
2027 1 -45.9113 1.14015 433.092 -45.9113 1.14015 433.092
2325 1 -39.6323 1.13335 435.525 -39.6323 1.13335 435.525
1749 1 -39.1787 4.10427 428.917 -39.1787 4.10427 428.917
1425 1 -59.7558 4.11753 423.489 -59.7558 4.11753 423.489
1736 1 -47.1981 4.1058 428.354 -47.1981 4.1058 428.354
1142 1 -57.147 1.91301 420.683 -57.147 1.91301 420.683
1720 1 -56.9558 4.10006 429.662 -56.9558 4.10006 429.662
2005 1 -58.6951 4.09411 431.532 -58.6951 4.09411 431.532
2002 1 -60.4343 4.0882 433.403 -60.4343 4.0882 433.403
1169 1 -40.2374 4.12736 420.876 -40.2374 4.12736 420.876
1723 1 -55.2165 4.10606 427.792 -55.2165 4.10606 427.792
1440 1 -51.7378 4.11812 424.051 -51.7378 4.11812 424.051
1733 1 -48.9376 4.10001 430.224 -48.9376 4.10001 430.224
2018 1 -50.6771 4.09416 432.094 -50.6771 4.09416 432.094
2015 1 -52.4164 4.08829 433.964 -52.4164 4.08829 433.964
2036 1 -40.9187 4.09885 430.786 -40.9187 4.09885 430.786
2032 1 -42.6585 4.09331 432.656 -42.6585 4.09331 432.656
2326 1 -38.989 1.86434 437.894 -38.989 1.86434 437.894
1752 1 -37.4385 4.10955 427.047 -37.4385 4.10955 427.047
1457 1 -41.9781 4.12227 422.745 -41.9781 4.12227 422.745
2043 1 -36.1525 1.14427 431.785 -36.1525 1.14427 431.785
2286 1 -63.0432 1.86566 436.208 -63.0432 1.86566 436.208
2319 1 -43.1115 1.12207 439.265 -43.1115 1.12207 439.265
1436 1 -53.4772 4.11209 425.921 -53.4772 4.11209 425.921
1422 1 -61.495 4.11153 425.359 -61.495 4.11153 425.359
1173 1 -37.8539 0.436117 421.375 -37.8539 0.436117 421.375
2293 1 -59.1473 1.12295 438.142 -59.1473 1.12295 438.142
2289 1 -61.5301 0.385968 437.643 -61.5301 0.385968 437.643
2295 1 -57.6342 4.0707 439.576 -57.6342 4.0707 439.576
1465 1 -37.2112 1.16728 423.744 -37.2112 1.16728 423.744
2315 1 -45.4943 0.385412 438.766 -45.4943 0.385412 438.766
2331 1 -36.3794 4.08636 435.089 -36.3794 4.08636 435.089
2297 1 -56.7646 1.8599 438.64 -56.7646 1.8599 438.64
2324 1 -39.8589 4.07526 438.829 -39.8589 4.07526 438.829
2306 1 -51.1295 1.1228 438.703 -51.1295 1.1228 438.703
2285 1 -63.2693 0.380102 439.513 -63.2693 0.380102 439.513
1462 1 -38.9517 1.16213 425.613 -38.9517 1.16213 425.613
1751 1 -37.6656 2.62426 430.351 -37.6656 2.62426 430.351
2329 1 -37.2493 1.86989 436.024 -37.2493 1.86989 436.024
2042 1 -37.0225 3.35531 432.72 -37.0225 3.35531 432.72
2041 1 -37.8925 1.13887 433.655 -37.8925 1.13887 433.655
2593 1 -51.9992 3.33363 439.638 -51.9992 3.33363 439.638
2328 1 -37.476 0.384409 439.328 -37.476 0.384409 439.328
2301 1 -54.3819 2.5968 439.139 -54.3819 2.5968 439.139
1466 1 -36.3409 3.38355 422.809 -36.3409 3.38355 422.809
2298 1 -56.5385 3.34549 435.336 -56.5385 3.34549 435.336
2321 1 -42.2417 3.33864 438.33 -42.2417 3.33864 438.33
2313 1 -47.0074 1.86533 437.332 -47.0074 1.86533 437.332
2294 1 -58.2777 3.33961 437.206 -58.2777 3.33961 437.206
2304 1 -52.6426 2.60263 437.269 -52.6426 2.60263 437.269
2300 1 -55.0254 1.86575 436.77 -55.0254 1.86575 436.77
2290 1 -60.6605 2.60263 436.707 -60.6605 2.60263 436.707
2318 1 -43.7548 0.391133 436.896 -43.7548 0.391133 436.896
2327 1 -38.1192 4.08085 436.959 -38.1192 4.08085 436.959
2004 1 -58.9212 2.60852 434.837 -58.9212 2.60852 434.837
2013 1 -53.2861 1.87162 434.9 -53.2861 1.87162 434.9
2288 1 -62.1736 4.08232 435.273 -62.1736 4.08232 435.273
2037 1 -40.2755 0.402375 433.156 -40.2755 0.402375 433.156
1739 1 -45.4584 4.11149 426.484 -45.4584 4.11149 426.484
1753 1 -36.7955 0.413189 429.416 -36.7955 0.413189 429.416
2307 1 -50.9033 2.60846 435.399 -50.9033 2.60846 435.399
2314 1 -46.1377 4.08194 436.397 -46.1377 4.08194 436.397
2040 1 -38.5356 0.407844 431.286 -38.5356 0.407844 431.286
2320 1 -42.885 2.6077 435.961 -42.885 2.6077 435.961
2292 1 -59.7908 0.391844 435.772 -59.7908 0.391844 435.772
2311 1 -48.5205 3.34523 435.898 -48.5205 3.34523 435.898
2302 1 -54.1557 4.08241 435.835 -54.1557 4.08241 435.835
2296 1 -57.4081 1.12882 436.271 -57.4081 1.12882 436.271
1463 1 -38.7243 2.64731 422.31 -38.7243 2.64731 422.31
2287 1 -62.3997 2.59676 438.578 -62.3997 2.59676 438.578
2291 1 -60.0169 3.33374 439.077 -60.0169 3.33374 439.077
2317 1 -44.6246 2.602 437.831 -44.6246 2.602 437.831
2038 1 -39.4056 2.61885 432.221 -39.4056 2.61885 432.221
2305 1 -51.773 0.39182 436.334 -51.773 0.39182 436.334
2332 1 -35.7363 0.38996 437.458 -35.7363 0.38996 437.458
1709 1 -63.2344 4.10563 427.23 -63.2344 4.10563 427.23
1468 1 -35.4706 1.17238 421.874 -35.4706 1.17238 421.874
1454 1 -43.7184 4.11699 424.614 -43.7184 4.11699 424.614
1429 1 -58.0165 4.12364 421.618 -58.0165 4.12364 421.618
1133 1 -62.7817 2.64922 420.62 -62.7817 2.64922 420.62
1175 1 -36.9836 2.65238 420.44 -36.9836 2.65238 420.44
2616 1 -38.5722 1.10976 443.567 -38.5722 1.10976 443.567
2901 1 -40.3116 1.10404 445.438 -40.3116 1.10404 445.438
2907 1 -37.0592 4.05733 445.002 -37.0592 4.05733 445.002
3194 1 -38.1551 0.355118 449.241 -38.1551 0.355118 449.241
2587 1 -55.2515 0.380161 440.075 -55.2515 0.380161 440.075
2597 1 -49.6164 4.07039 440.137 -49.6164 4.07039 440.137
2584 1 -56.9907 0.374351 441.945 -56.9907 0.374351 441.945
2581 1 -58.7299 0.368551 443.816 -58.7299 0.368551 443.816
2868 1 -60.469 0.362745 445.686 -60.469 0.362745 445.686
2865 1 -62.2081 0.356913 447.556 -62.2081 0.356913 447.556
2601 1 -47.2337 0.379657 440.636 -47.2337 0.379657 440.636
2598 1 -48.973 0.373889 442.507 -48.973 0.373889 442.507
2885 1 -50.7122 0.36813 444.377 -50.7122 0.36813 444.377
2882 1 -52.4515 0.362402 446.248 -52.4515 0.362402 446.248
2879 1 -54.1907 0.356714 448.118 -54.1907 0.356714 448.118
2612 1 -40.955 0.373083 443.068 -40.955 0.373083 443.068
2898 1 -42.6943 0.367342 444.939 -42.6943 0.367342 444.939
2895 1 -44.4336 0.361575 446.809 -44.4336 0.361575 446.809
3180 1 -46.1728 0.355813 448.679 -46.1728 0.355813 448.679
2576 1 -61.7561 3.32788 440.947 -61.7561 3.32788 440.947
2574 1 -63.4953 3.32201 442.818 -63.4953 3.32201 442.818
2589 1 -53.7384 3.32783 441.509 -53.7384 3.32783 441.509
2586 1 -55.4776 3.32206 443.379 -55.4776 3.32206 443.379
2874 1 -57.2168 3.31631 445.25 -57.2168 3.31631 445.25
2871 1 -58.956 3.31056 447.12 -58.956 3.31056 447.12
3155 1 -60.695 3.3048 448.991 -60.695 3.3048 448.991
2607 1 -43.9812 3.33293 440.2 -43.9812 3.33293 440.2
2604 1 -45.7206 3.32719 442.07 -45.7206 3.32719 442.07
2600 1 -47.4599 3.32143 443.941 -47.4599 3.32143 443.941
2887 1 -49.1991 3.31567 445.811 -49.1991 3.31567 445.811
2884 1 -50.9383 3.30994 447.682 -50.9383 3.30994 447.682
3168 1 -52.6776 3.30426 449.552 -52.6776 3.30426 449.552
2900 1 -41.1812 3.31489 446.373 -41.1812 3.31489 446.373
2897 1 -42.9204 3.30912 448.243 -42.9204 3.30912 448.243
2582 1 -58.5038 1.85406 440.511 -58.5038 1.85406 440.511
2579 1 -60.243 1.84822 442.381 -60.243 1.84822 442.381
2866 1 -61.9821 1.84237 444.252 -61.9821 1.84237 444.252
2578 1 -60.8865 1.11708 440.012 -60.8865 1.11708 440.012
2595 1 -50.4861 1.85378 441.072 -50.4861 1.85378 441.072
2592 1 -52.2253 1.84801 442.943 -52.2253 1.84801 442.943
2880 1 -53.9646 1.84226 444.813 -53.9646 1.84226 444.813
2877 1 -55.7038 1.83655 446.684 -55.7038 1.83655 446.684
2873 1 -57.4429 1.83086 448.554 -57.4429 1.83086 448.554
2609 1 -42.4681 1.853 441.634 -42.4681 1.853 441.634
2606 1 -44.2074 1.84726 443.504 -44.2074 1.84726 443.504
2892 1 -45.9467 1.8415 445.375 -45.9467 1.8415 445.375
2890 1 -47.6859 1.83574 447.245 -47.6859 1.83574 447.245
3174 1 -49.4251 1.83001 449.116 -49.4251 1.83001 449.116
2618 1 -37.7025 3.32632 442.632 -37.7025 3.32632 442.632
2585 1 -56.1211 2.59098 441.01 -56.1211 2.59098 441.01
2583 1 -57.8603 2.58518 442.88 -57.8603 2.58518 442.88
2870 1 -59.5995 2.57938 444.751 -59.5995 2.57938 444.751
2867 1 -61.3386 2.57356 446.621 -61.3386 2.57356 446.621
2863 1 -63.0776 2.5677 448.492 -63.0776 2.5677 448.492
2599 1 -48.1033 2.5905 441.571 -48.1033 2.5905 441.571
2596 1 -49.8426 2.58473 443.442 -49.8426 2.58473 443.442
2883 1 -51.5818 2.57899 445.312 -51.5818 2.57899 445.312
2881 1 -53.3211 2.57328 447.183 -53.3211 2.57328 447.183
3164 1 -55.0603 2.56761 449.053 -55.0603 2.56761 449.053
2610 1 -41.8247 2.58394 444.003 -41.8247 2.58394 444.003
2896 1 -43.564 2.57819 445.874 -43.564 2.57819 445.874
2893 1 -45.3032 2.57242 447.744 -45.3032 2.57242 447.744
3178 1 -47.0423 2.56667 449.614 -47.0423 2.56667 449.614
2575 1 -62.6257 1.11122 441.882 -62.6257 1.11122 441.882
2591 1 -52.8688 1.117 440.574 -52.8688 1.117 440.574
2588 1 -54.608 1.11122 442.444 -54.608 1.11122 442.444
2876 1 -56.3472 1.10546 444.314 -56.3472 1.10546 444.314
2872 1 -58.0864 1.09971 446.185 -58.0864 1.09971 446.185
2869 1 -59.8255 1.09396 448.055 -59.8255 1.09396 448.055
2605 1 -44.8509 1.11634 441.135 -44.8509 1.11634 441.135
2602 1 -46.5902 1.11058 443.006 -46.5902 1.11058 443.006
2889 1 -48.3295 1.10482 444.876 -48.3295 1.10482 444.876
2886 1 -50.0687 1.09907 446.746 -50.0687 1.09907 446.746
3170 1 -51.8079 1.09337 448.617 -51.8079 1.09337 448.617
2899 1 -42.0508 1.09828 447.308 -42.0508 1.09828 447.308
3184 1 -43.79 1.09251 449.178 -43.79 1.09251 449.178
2580 1 -59.3734 4.06486 441.446 -59.3734 4.06486 441.446
2577 1 -61.1126 4.05902 443.317 -61.1126 4.05902 443.317
2864 1 -62.8517 4.05316 445.187 -62.8517 4.05316 445.187
2862 1 -63.7212 1.8365 446.122 -63.7212 1.8365 446.122
2594 1 -51.3557 4.06462 442.008 -51.3557 4.06462 442.008
2590 1 -53.095 4.05886 443.878 -53.095 4.05886 443.878
2878 1 -54.8342 4.05313 445.749 -54.8342 4.05313 445.749
2875 1 -56.5734 4.04743 447.619 -56.5734 4.04743 447.619
3159 1 -58.3125 4.04175 449.49 -58.3125 4.04175 449.49
2611 1 -41.5984 4.06959 440.699 -41.5984 4.06959 440.699
2608 1 -43.3378 4.06386 442.569 -43.3378 4.06386 442.569
2894 1 -45.0771 4.05811 444.44 -45.0771 4.05811 444.44
2891 1 -46.8163 4.05234 446.31 -46.8163 4.05234 446.31
2888 1 -48.5555 4.04659 448.18 -48.5555 4.04659 448.18
2904 1 -38.7985 4.0516 446.872 -38.7985 4.0516 446.872
2621 1 -35.9629 3.33196 440.762 -35.9629 3.33196 440.762
2617 1 -38.3458 2.59533 440.263 -38.3458 2.59533 440.263
2614 1 -40.0853 2.58966 442.133 -40.0853 2.58966 442.133
2908 1 -36.4159 0.360881 447.371 -36.4159 0.360881 447.371
2619 1 -36.8327 1.11542 441.697 -36.8327 1.11542 441.697
2906 1 -37.2855 2.57173 448.306 -37.2855 2.57173 448.306
2905 1 -37.9289 1.84074 445.937 -37.9289 1.84074 445.937
2620 1 -36.1895 1.84644 444.066 -36.1895 1.84644 444.066
3190 1 -40.5377 4.04583 448.742 -40.5377 4.04583 448.742
2902 1 -39.6681 1.83499 447.807 -39.6681 1.83499 447.807
2903 1 -39.4419 3.32063 444.502 -39.4419 3.32063 444.502
2615 1 -39.2156 0.378778 441.198 -39.2156 0.378778 441.198
2909 1 -35.5462 2.57747 446.436 -35.5462 2.57747 446.436
14 1 -54.9121 4.21447 400.051 -54.9121 4.21447 400.051
7 1 -59.6148 2.70967 399.141 -59.6148 2.70967 399.141
25 1 -46.8908 4.20495 400.525 -46.8908 4.20495 400.525
38 1 -38.865 4.16317 401.04 -38.865 4.16317 401.04
23 1 -48.633 4.18336 402.389 -48.633 4.18336 402.389
287 1 -52.1113 4.1641 406.098 -52.1113 4.1641 406.098
878 1 -43.0358 4.14505 414.705 -43.0358 4.14505 414.705
579 1 -49.3169 4.15267 412.272 -49.3169 4.15267 412.272
585 1 -45.8336 4.1633 408.535 -45.8336 4.1633 408.535
290 1 -50.3743 4.17044 404.229 -50.3743 4.17044 404.229
11 1 -56.6435 4.16459 401.824 -56.6435 4.16459 401.824
595 1 -39.5539 4.15537 410.966 -39.5539 4.15537 410.966
1134 1 -62.5553 4.1348 417.315 -62.5553 4.1348 417.315
283 1 -53.8551 4.16208 407.966 -53.8551 4.16208 407.966
582 1 -47.5749 4.15765 410.404 -47.5749 4.15765 410.404
276 1 -58.396 4.17884 403.676 -58.396 4.17884 403.676
569 1 -55.599 4.16 409.832 -55.599 4.16 409.832
847 1 -60.8162 4.14105 415.444 -60.8162 4.14105 415.444
556 1 -63.6153 4.15842 409.268 -63.6153 4.15842 409.268
272 1 -60.1458 4.17953 405.522 -60.1458 4.17953 405.522
3 1 -61.4382 2.72367 400.821 -61.4382 2.72367 400.821
35 1 -40.6073 4.18103 402.915 -40.6073 4.18103 402.915
598 1 -37.8133 4.16091 409.096 -37.8133 4.16091 409.096
850 1 -59.0775 4.14766 413.573 -59.0775 4.14766 413.573