ITEM: TIMESTEP
0
ITEM: NUMBER OF ATOMS
4630
ITEM: BOX BOUNDS xy xz yz pp pp pp
-6.3855828495712707e+01 1.0687486034391270e+02 0.0000000000000000e+00
0.0000000000000000e+00 4.4274527100805940e+00 0.0000000000000000e+00
3.8000000000000000e+02 5.0000000000000000e+02 0.0000000000000000e+00
ITEM: ATOMS id type x y z xu yu zu
27 1 -45.9953 2.01731 399.677 -45.9953 2.01731 399.677
36 1 -40.3591 1.27646 399.735 -40.3591 1.27646 399.735
31 1 -43.598 2.71447 400.115 -43.598 2.71447 400.115
22 1 -49.2114 3.46705 400.081 -49.2114 3.46705 400.081
20 1 -50.099 1.24455 400.923 -50.099 1.24455 400.923
40 1 -37.9638 1.97481 400.176 -37.9638 1.97481 400.176
34 1 -41.2237 3.47471 400.566 -41.2237 3.47471 400.566
17 1 -52.4773 0.49472 400.478 -52.4773 0.49472 400.478
9 1 -58.0812 1.1874 400.388 -58.0812 1.1874 400.388
43 1 -35.5902 2.73584 400.628 -35.5902 2.73584 400.628
12 1 -55.7328 1.99469 400.868 -55.7328 1.99469 400.868
5 1 -60.4705 0.506645 399.925 -60.4705 0.506645 399.925
29 1 -44.4642 0.485775 400.967 -44.4642 0.485775 400.967
853 1 -57.5204 2.67412 415 -57.5204 2.67412 415
873 1 -46.2525 1.19884 415.131 -46.2525 1.19884 415.131
865 1 -50.3751 0.457177 416.5 -50.3751 0.457177 416.5
1174 1 -37.5931 1.92641 418.064 -37.5931 1.92641 418.064
883 1 -40.6175 0.459835 415.195 -40.6175 0.459835 415.195
863 1 -51.8879 1.93755 415.065 -51.8879 1.93755 415.065
315 1 -35.8171 1.23269 403.909 -35.8171 1.23269 403.909
307 1 -40.8054 2.70209 406.218 -40.8054 2.70209 406.218
1150 1 -52.114 0.450847 418.37 -52.114 0.450847 418.37
855 1 -56.0081 1.19407 416.435 -56.0081 1.19407 416.435
310 1 -39.0659 2.70969 404.353 -39.0659 2.70969 404.353
871 1 -47.1226 3.40985 416.066 -47.1226 3.40985 416.066
16 1 -53.3432 2.69305 401.331 -53.3432 2.69305 401.331
309 1 -39.2924 1.2217 407.65 -39.2924 1.2217 407.65
1156 1 -48.8624 3.40415 417.935 -48.8624 3.40415 417.935
867 1 -49.5053 2.67382 415.566 -49.5053 2.67382 415.566
1159 1 -46.4799 4.14024 418.435 -46.4799 4.14024 418.435
1168 1 -40.8452 3.40127 418.5 -40.8452 3.40127 418.5
1170 1 -39.9753 1.19032 417.565 -39.9753 1.19032 417.565
594 1 -40.1622 3.43242 408.587 -40.1622 3.43242 408.587
37 1 -39.708 1.97956 402.008 -39.708 1.97956 402.008
851 1 -58.3892 0.456853 415.935 -58.3892 0.456853 415.935
857 1 -55.1391 3.41127 415.5 -55.1391 3.41127 415.5
592 1 -41.0319 1.21579 409.522 -41.0319 1.21579 409.522
849 1 -59.2582 2.66709 416.871 -59.2582 2.66709 416.871
877 1 -43.8699 1.93478 415.631 -43.8699 1.93478 415.631
1143 1 -56.877 3.40432 417.371 -56.877 3.40432 417.371
1140 1 -58.615 3.39743 419.242 -58.615 3.39743 419.242
845 1 -61.6392 1.92989 416.372 -61.6392 1.92989 416.372
875 1 -44.74 4.14578 416.566 -44.74 4.14578 416.566
886 1 -38.8777 0.465533 413.325 -38.8777 0.465533 413.325
891 1 -35.626 3.41837 412.889 -35.626 3.41837 412.889
39 1 -38.2007 0.491992 403.403 -38.2007 0.491992 403.403
1177 1 -36.081 0.445984 419.499 -36.081 0.445984 419.499
1167 1 -41.7151 1.18477 419.435 -41.7151 1.18477 419.435
8 1 -58.9585 3.44179 401.342 -58.9585 3.44179 401.342
869 1 -47.9926 1.19333 417 -47.9926 1.19333 417
1136 1 -60.9962 2.66029 418.743 -60.9962 2.66029 418.743
1162 1 -44.9673 2.6597 419.87 -44.9673 2.6597 419.87
15 1 -54.2164 0.497008 402.314 -54.2164 0.497008 402.314
280 1 -55.9602 0.488075 404.159 -55.9602 0.488075 404.159
277 1 -57.7121 0.493807 406.018 -57.7121 0.493807 406.018
273 1 -59.4524 0.486934 407.884 -59.4524 0.486934 407.884
560 1 -61.188 0.477187 409.757 -61.188 0.477187 409.757
557 1 -62.9251 0.469251 411.63 -62.9251 0.469251 411.63
26 1 -46.206 0.501708 402.844 -46.206 0.501708 402.844
294 1 -47.9497 0.497185 404.722 -47.9497 0.497185 404.722
291 1 -49.6903 0.486393 406.589 -49.6903 0.486393 406.589
576 1 -51.4308 0.479579 408.458 -51.4308 0.479579 408.458
573 1 -53.173 0.475647 410.325 -53.173 0.475647 410.325
570 1 -54.9133 0.470626 412.193 -54.9133 0.470626 412.193
854 1 -56.6515 0.463937 414.064 -56.6515 0.463937 414.064
305 1 -41.6739 0.485759 407.153 -41.6739 0.485759 407.153
589 1 -43.414 0.479828 409.023 -43.414 0.479828 409.023
586 1 -45.1542 0.473879 410.893 -45.1542 0.473879 410.893
872 1 -46.8947 0.468243 412.762 -46.8947 0.468243 412.762
599 1 -37.138 0.47142 411.455 -37.138 0.47142 411.455
1132 1 -63.3774 1.92325 418.244 -63.3774 1.92325 418.244
4 1 -60.7481 3.46831 403.131 -60.7481 3.46831 403.131
268 1 -62.4758 3.44523 405.004 -62.4758 3.44523 405.004
1152 1 -51.2446 2.6678 417.435 -51.2446 2.6678 417.435
19 1 -50.9794 3.43703 401.847 -50.9794 3.43703 401.847
286 1 -52.7096 3.43478 403.706 -52.7096 3.43478 403.706
282 1 -54.4498 3.43584 405.585 -54.4498 3.43584 405.585
279 1 -56.1975 3.43675 407.452 -56.1975 3.43675 407.452
565 1 -57.9388 3.43244 409.32 -57.9388 3.43244 409.32
563 1 -59.6759 3.42449 411.192 -59.6759 3.42449 411.192
846 1 -61.4132 3.41683 413.065 -61.4132 3.41683 413.065
32 1 -42.956 3.44876 402.432 -42.956 3.44876 402.432
300 1 -44.6984 3.44813 404.293 -44.6984 3.44813 404.293
297 1 -46.4395 3.4416 406.156 -46.4395 3.4416 406.156
293 1 -48.1787 3.43479 408.025 -48.1787 3.43479 408.025
578 1 -49.9191 3.42838 409.894 -49.9191 3.42838 409.894
575 1 -51.6605 3.42335 411.761 -51.6605 3.42335 411.761
860 1 -53.4006 3.41784 413.63 -53.4006 3.41784 413.63
591 1 -41.902 3.42651 410.457 -41.902 3.42651 410.457
588 1 -43.642 3.42079 412.327 -43.642 3.42079 412.327
874 1 -45.3823 3.41525 414.197 -45.3823 3.41525 414.197
10 1 -57.4652 1.95558 402.733 -57.4652 1.95558 402.733
274 1 -59.2298 1.9785 404.576 -59.2298 1.9785 404.576
271 1 -60.9654 1.96761 406.445 -60.9654 1.96761 406.445
558 1 -62.6994 1.95651 408.321 -62.6994 1.95651 408.321
24 1 -47.7368 1.97341 401.438 -47.7368 1.97341 401.438
21 1 -49.4681 1.97412 403.283 -49.4681 1.97412 403.283
288 1 -51.1999 1.96458 405.157 -51.1999 1.96458 405.157
285 1 -52.9411 1.95825 407.025 -52.9411 1.95825 407.025
571 1 -54.6854 1.9558 408.89 -54.6854 1.9558 408.89
568 1 -56.4261 1.95126 410.757 -56.4261 1.95126 410.757
852 1 -58.1638 1.94417 412.628 -58.1638 1.94417 412.628
848 1 -59.9013 1.93685 414.5 -59.9013 1.93685 414.5
306 1 -41.4496 1.97104 403.848 -41.4496 1.97104 403.848
302 1 -43.1869 1.96556 405.717 -43.1869 1.96556 405.717
299 1 -44.9263 1.96052 407.588 -44.9263 1.96052 407.588
583 1 -46.6663 1.95444 409.459 -46.6663 1.95444 409.459
581 1 -48.407 1.94848 411.328 -48.407 1.94848 411.328
866 1 -50.1479 1.9432 413.196 -50.1479 1.9432 413.196
880 1 -42.1297 1.94031 413.761 -42.1297 1.94031 413.761
312 1 -37.554 1.22734 405.778 -37.554 1.22734 405.778
2 1 -62.2737 0.523197 401.696 -62.2737 0.523197 401.696
13 1 -55.0813 2.70358 403.211 -55.0813 2.70358 403.211
278 1 -56.8343 2.70431 405.084 -56.8343 2.70431 405.084
275 1 -58.5831 2.70506 406.947 -58.5831 2.70506 406.947
562 1 -60.3198 2.69558 408.82 -60.3198 2.69558 408.82
559 1 -62.0563 2.68675 410.693 -62.0563 2.68675 410.693
1166 1 -42.585 3.39572 420.37 -42.585 3.39572 420.37
889 1 -36.4957 1.20172 413.824 -36.4957 1.20172 413.824
28 1 -45.3397 2.71821 401.949 -45.3397 2.71821 401.949
296 1 -47.0837 2.71164 403.787 -47.0837 2.71164 403.787
292 1 -48.8211 2.70547 405.654 -48.8211 2.70547 405.654
289 1 -50.5598 2.69679 407.525 -50.5598 2.69679 407.525
574 1 -52.3018 2.69152 409.393 -52.3018 2.69152 409.393
572 1 -54.0435 2.68721 411.259 -54.0435 2.68721 411.259
856 1 -55.7826 2.68116 413.129 -55.7826 2.68116 413.129
303 1 -42.5445 2.69613 408.088 -42.5445 2.69613 408.088
587 1 -44.2842 2.69048 409.958 -44.2842 2.69048 409.958
584 1 -46.0244 2.68472 411.828 -46.0244 2.68472 411.828
870 1 -47.765 2.67927 413.697 -47.765 2.67927 413.697
6 1 -59.8625 1.24938 402.213 -59.8625 1.24938 402.213
270 1 -61.6121 1.24218 404.062 -61.6121 1.24218 404.062
267 1 -63.3412 1.22601 405.946 -63.3412 1.22601 405.946
890 1 -35.8534 1.93211 416.194 -35.8534 1.93211 416.194
18 1 -51.8348 1.22522 402.794 -51.8348 1.22522 402.794
284 1 -53.577 1.22493 404.66 -53.577 1.22493 404.66
281 1 -55.3246 1.22304 406.522 -55.3246 1.22304 406.522
567 1 -57.0694 1.22199 408.386 -57.0694 1.22199 408.386
564 1 -58.8076 1.21486 410.256 -58.8076 1.21486 410.256
561 1 -60.5445 1.20684 412.129 -60.5445 1.20684 412.129
844 1 -62.2822 1.19955 414.001 -62.2822 1.19955 414.001
33 1 -42.1063 1.23514 401.493 -42.1063 1.23514 401.493
30 1 -43.8329 1.23031 403.343 -43.8329 1.23031 403.343
298 1 -45.5691 1.23085 405.218 -45.5691 1.23085 405.218
295 1 -47.3086 1.22479 407.09 -47.3086 1.22479 407.09
580 1 -49.0487 1.21747 408.959 -49.0487 1.21747 408.959
577 1 -50.7899 1.21195 410.827 -50.7899 1.21195 410.827
862 1 -52.5308 1.20698 412.695 -52.5308 1.20698 412.695
590 1 -42.7719 1.20996 411.392 -42.7719 1.20996 411.392
876 1 -44.5121 1.20427 413.262 -44.5121 1.20427 413.262
1163 1 -44.0975 0.448784 418.935 -44.0975 0.448784 418.935
1153 1 -50.6013 3.39794 419.805 -50.6013 3.39794 419.805
311 1 -38.4223 3.43907 406.717 -38.4223 3.43907 406.717
42 1 -36.4734 0.496084 401.554 -36.4734 0.496084 401.554
1135 1 -61.8652 0.443241 419.679 -61.8652 0.443241 419.679
1171 1 -39.3329 1.92081 419.934 -39.3329 1.92081 419.934
1139 1 -59.484 1.18033 420.178 -59.484 1.18033 420.178
601 1 -36.2684 2.68809 410.519 -36.2684 2.68809 410.519
313 1 -36.6811 3.44607 404.845 -36.6811 3.44607 404.845
858 1 -54.27 1.20091 414.564 -54.27 1.20091 414.564
868 1 -48.6352 0.462883 414.631 -48.6352 0.462883 414.631
1147 1 -54.4957 4.14144 417.87 -54.4957 4.14144 417.87
843 1 -63.1512 3.40985 414.937 -63.1512 3.40985 414.937
593 1 -40.3898 1.94601 411.891 -40.3898 1.94601 411.891
308 1 -39.9352 0.491774 405.279 -39.9352 0.491774 405.279
861 1 -52.7573 4.14814 416 -52.7573 4.14814 416
1158 1 -47.3497 1.92362 419.37 -47.3497 1.92362 419.37
884 1 -39.7476 2.67639 414.26 -39.7476 2.67639 414.26
881 1 -41.4875 2.67078 416.13 -41.4875 2.67078 416.13
885 1 -39.1053 3.40684 416.63 -39.1053 3.40684 416.63
859 1 -53.6266 1.9311 416.935 -53.6266 1.9311 416.935
596 1 -38.6502 1.95184 410.02 -38.6502 1.95184 410.02
879 1 -42.3575 0.454292 417.065 -42.3575 0.454292 417.065
1172 1 -38.463 4.13733 418.999 -38.463 4.13733 418.999
1154 1 -49.7319 1.18738 418.87 -49.7319 1.18738 418.87
887 1 -38.2354 1.19594 415.695 -38.2354 1.19594 415.695
597 1 -38.0078 2.68215 412.39 -38.0078 2.68215 412.39
1161 1 -45.61 1.92932 417.5 -45.61 1.92932 417.5
1138 1 -60.1271 0.449935 417.807 -60.1271 0.449935 417.807
1149 1 -52.9832 2.66125 419.306 -52.9832 2.66125 419.306
41 1 -37.3235 2.71003 402.493 -37.3235 2.71003 402.493
888 1 -37.3656 3.41253 414.76 -37.3656 3.41253 414.76
1165 1 -43.2275 2.66527 418 -43.2275 2.66527 418
1141 1 -57.746 1.18713 418.306 -57.746 1.18713 418.306
1145 1 -55.3647 1.92428 418.806 -55.3647 1.92428 418.806
600 1 -36.9112 1.95777 408.15 -36.9112 1.95777 408.15
1148 1 -53.8523 0.44416 420.241 -53.8523 0.44416 420.241
882 1 -41.2598 4.15685 412.826 -41.2598 4.15685 412.826
1157 1 -48.2193 4.13434 420.305 -48.2193 4.13434 420.305
1144 1 -56.2337 4.13458 419.741 -56.2337 4.13458 419.741
602 1 -35.3986 0.477513 409.584 -35.3986 0.477513 409.584
1131 1 -63.6035 0.436732 421.55 -63.6035 0.436732 421.55
1755 1 -35.8929 2.63173 428.478 -35.8929 2.63173 428.478
1460 1 -40.4299 2.64561 424.174 -40.4299 2.64561 424.174
2308 1 -50.2188 3.33882 437.768 -50.2188 3.33882 437.768
2316 1 -45.2298 1.87117 435.461 -45.2298 1.87117 435.461
2312 1 -47.8374 4.07543 438.267 -47.8374 4.07543 438.267
1464 1 -38.0479 3.38172 424.673 -38.0479 3.38172 424.673
1461 1 -39.5602 0.434729 423.239 -39.5602 0.434729 423.239
2039 1 -38.7281 3.35024 434.588 -38.7281 3.35024 434.588
2613 1 -40.6929 1.85756 439.765 -40.6929 1.85756 439.765
1467 1 -35.6659 4.11786 425.173 -35.6659 4.11786 425.173
2603 1 -46.3251 2.5951 439.702 -46.3251 2.5951 439.702
1443 1 -49.9581 4.12806 422.175 -49.9581 4.12806 422.175
1748 1 -39.7872 3.37597 426.543 -39.7872 3.37597 426.543
2023 1 -47.6114 1.13463 434.962 -47.6114 1.13463 434.962
2310 1 -48.7065 1.85853 439.203 -48.7065 1.85853 439.203
1151 1 -51.4706 1.18097 420.741 -51.4706 1.18097 420.741
2303 1 -53.4693 0.38523 438.205 -53.4693 0.38523 438.205
2299 1 -55.8507 4.07593 437.706 -55.8507 4.07593 437.706
2033 1 -41.979 0.397034 435.024 -41.979 0.397034 435.024
1433 1 -55.5905 0.437404 422.112 -55.5905 0.437404 422.112
1430 1 -57.3286 0.430704 423.983 -57.3286 0.430704 423.983
1426 1 -59.0668 0.424087 425.854 -59.0668 0.424087 425.854
1713 1 -60.805 0.417552 427.726 -60.805 0.417552 427.726
1710 1 -62.5433 0.411084 429.597 -62.5433 0.411084 429.597
2330 1 -36.5729 2.60021 438.393 -36.5729 2.60021 438.393
1160 1 -45.8371 0.443083 420.805 -45.8371 0.443083 420.805
1447 1 -47.5762 0.437051 422.675 -47.5762 0.437051 422.675
1444 1 -49.3148 0.430741 424.546 -49.3148 0.430741 424.546
1730 1 -51.0533 0.424278 426.416 -51.0533 0.424278 426.416
1727 1 -52.7916 0.417759 428.287 -52.7916 0.417759 428.287
1724 1 -54.5299 0.411235 430.158 -54.5299 0.411235 430.158
2008 1 -56.2681 0.404727 432.03 -56.2681 0.404727 432.03
2006 1 -58.0063 0.398245 433.901 -58.0063 0.398245 433.901
1458 1 -41.2996 0.42899 425.109 -41.2996 0.42899 425.109
1743 1 -43.0387 0.423069 426.979 -43.0387 0.423069 426.979
1740 1 -44.7775 0.416964 428.85 -44.7775 0.416964 428.85
2026 1 -46.5161 0.410722 430.72 -46.5161 0.410722 430.72
2022 1 -48.2545 0.404393 432.591 -48.2545 0.404393 432.591
2019 1 -49.9929 0.398019 434.462 -49.9929 0.398019 434.462
2309 1 -49.3497 1.12828 436.833 -49.3497 1.12828 436.833
1137 1 -60.3531 3.39071 421.113 -60.3531 3.39071 421.113
1421 1 -62.0913 3.38414 422.985 -62.0913 3.38414 422.985
1439 1 -52.3398 3.3914 421.676 -52.3398 3.3914 421.676
1435 1 -54.0781 3.38473 423.547 -54.0781 3.38473 423.547
1432 1 -55.8163 3.37808 425.418 -55.8163 3.37808 425.418
1719 1 -57.5545 3.37148 427.289 -57.5545 3.37148 427.289
1716 1 -59.2927 3.36493 429.16 -59.2927 3.36493 429.16
2001 1 -61.0309 3.35844 431.032 -61.0309 3.35844 431.032
1998 1 -62.7691 3.352 432.903 -62.7691 3.352 432.903
2323 1 -40.4667 3.34411 436.459 -40.4667 3.34411 436.459
1453 1 -44.3245 3.39 422.239 -44.3245 3.39 422.239
1450 1 -46.0636 3.38402 424.11 -46.0636 3.38402 424.11
1446 1 -47.8024 3.3778 425.98 -47.8024 3.3778 425.98
1732 1 -49.5409 3.37142 427.851 -49.5409 3.37142 427.851
1729 1 -51.2792 3.36498 429.722 -51.2792 3.36498 429.722
2014 1 -53.0175 3.3585 431.593 -53.0175 3.3585 431.593
2011 1 -54.7558 3.35203 433.464 -54.7558 3.35203 433.464
1745 1 -41.5263 3.37006 428.414 -41.5263 3.37006 428.414
1742 1 -43.2651 3.36399 430.284 -43.2651 3.36399 430.284
2028 1 -45.0037 3.3578 432.155 -45.0037 3.3578 432.155
2025 1 -46.7422 3.35152 434.026 -46.7422 3.35152 434.026
1427 1 -58.8409 1.91073 422.548 -58.8409 1.91073 422.548
1424 1 -60.5791 1.90412 424.42 -60.5791 1.90412 424.42
1711 1 -62.3173 1.89761 426.291 -62.3173 1.89761 426.291
2322 1 -41.336 1.12729 437.394 -41.336 1.12729 437.394
1750 1 -38.2748 1.89552 427.978 -38.2748 1.89552 427.978
1155 1 -49.0887 1.91752 421.24 -49.0887 1.91752 421.24
1441 1 -50.8273 1.9111 423.111 -50.8273 1.9111 423.111
1438 1 -52.5657 1.90454 424.982 -52.5657 1.90454 424.982
1725 1 -54.304 1.89795 426.853 -54.304 1.89795 426.853
1722 1 -56.0422 1.89138 428.724 -56.0422 1.89138 428.724
1718 1 -57.7804 1.88485 430.595 -57.7804 1.88485 430.595
2003 1 -59.5186 1.87835 432.466 -59.5186 1.87835 432.466
2000 1 -61.2568 1.87189 434.337 -61.2568 1.87189 434.337
1459 1 -41.0726 1.91521 421.804 -41.0726 1.91521 421.804
1455 1 -42.812 1.90949 423.674 -42.812 1.90949 423.674
1452 1 -44.5511 1.90354 425.544 -44.5511 1.90354 425.544
1737 1 -46.2899 1.89739 427.415 -46.2899 1.89739 427.415
1735 1 -48.0285 1.89108 429.286 -48.0285 1.89108 429.286
2020 1 -49.7669 1.8847 431.157 -49.7669 1.8847 431.157
2017 1 -51.5052 1.87828 433.028 -51.5052 1.87828 433.028
2034 1 -41.7527 1.88358 431.719 -41.7527 1.88358 431.719
2031 1 -43.4914 1.87742 433.59 -43.4914 1.87742 433.59
2029 1 -44.3606 4.08803 434.525 -44.3606 4.08803 434.525
1146 1 -54.7214 2.65451 421.176 -54.7214 2.65451 421.176
1431 1 -56.4595 2.64777 423.048 -56.4595 2.64777 423.048
1428 1 -58.1977 2.64111 424.919 -58.1977 2.64111 424.919
1715 1 -59.9359 2.63454 426.79 -59.9359 2.63454 426.79
1712 1 -61.6741 2.62804 428.661 -61.6741 2.62804 428.661
1708 1 -63.4124 2.6216 430.533 -63.4124 2.6216 430.533
1747 1 -40.0139 1.88962 429.848 -40.0139 1.88962 429.848
1449 1 -46.7067 2.65384 421.74 -46.7067 2.65384 421.74
1445 1 -48.4455 2.64765 423.61 -48.4455 2.64765 423.61
1442 1 -50.1841 2.64125 425.481 -50.1841 2.64125 425.481
1728 1 -51.9224 2.63475 427.352 -51.9224 2.63475 427.352
1726 1 -53.6607 2.62822 429.223 -53.6607 2.62822 429.223
2010 1 -55.399 2.6217 431.094 -55.399 2.6217 431.094
2007 1 -57.1372 2.61521 432.965 -57.1372 2.61521 432.965
1456 1 -42.1692 2.63978 426.044 -42.1692 2.63978 426.044
1741 1 -43.9081 2.63376 427.914 -43.9081 2.63376 427.914
1738 1 -45.6468 2.62758 429.785 -45.6468 2.62758 429.785
2024 1 -47.3853 2.62129 431.656 -47.3853 2.62129 431.656
2021 1 -49.1237 2.61494 433.527 -49.1237 2.61494 433.527
2035 1 -41.1097 2.61384 434.089 -41.1097 2.61384 434.089
1754 1 -36.5356 1.90129 426.108 -36.5356 1.90129 426.108
1423 1 -61.2222 1.17369 422.049 -61.2222 1.17369 422.049
1420 1 -62.9604 1.16718 423.921 -62.9604 1.16718 423.921
2044 1 -35.477 1.87589 434.153 -35.477 1.87589 434.153
1437 1 -53.209 1.17434 422.611 -53.209 1.17434 422.611
1434 1 -54.9472 1.16768 424.482 -54.9472 1.16768 424.482
1721 1 -56.6854 1.16105 426.353 -56.6854 1.16105 426.353
1717 1 -58.4236 1.15447 428.225 -58.4236 1.15447 428.225
1714 1 -60.1618 1.14796 430.096 -60.1618 1.14796 430.096
1999 1 -61.9 1.14149 431.967 -61.9 1.14149 431.967
1997 1 -63.6382 1.13506 433.838 -63.6382 1.13506 433.838
1164 1 -43.4548 1.17916 421.304 -43.4548 1.17916 421.304
1451 1 -45.1941 1.17332 423.175 -45.1941 1.17332 423.175
1448 1 -46.933 1.16721 425.045 -46.933 1.16721 425.045
1734 1 -48.6716 1.1609 426.916 -48.6716 1.1609 426.916
1731 1 -50.4101 1.15448 428.787 -50.4101 1.15448 428.787
2016 1 -52.1484 1.14801 430.658 -52.1484 1.14801 430.658
2012 1 -53.8866 1.14154 432.529 -53.8866 1.14154 432.529
2009 1 -55.6249 1.13507 434.4 -55.6249 1.13507 434.4
1746 1 -40.6568 1.15931 427.479 -40.6568 1.15931 427.479
1744 1 -42.3957 1.15332 429.349 -42.3957 1.15332 429.349
2030 1 -44.1344 1.14718 431.22 -44.1344 1.14718 431.22
2027 1 -45.873 1.14094 433.091 -45.873 1.14094 433.091
2325 1 -39.5974 1.13346 435.524 -39.5974 1.13346 435.524
1749 1 -39.1444 4.10631 428.913 -39.1444 4.10631 428.913
1425 1 -59.71 4.12114 423.484 -59.71 4.12114 423.484
1736 1 -47.1592 4.10798 428.35 -47.1592 4.10798 428.35
1142 1 -57.1028 1.91745 420.677 -57.1028 1.91745 420.677
1720 1 -56.9113 4.10183 429.659 -56.9113 4.10183 429.659
2005 1 -58.6495 4.09532 431.531 -58.6495 4.09532 431.531
2002 1 -60.3877 4.08884 433.402 -60.3877 4.08884 433.402
1169 1 -40.2028 4.13174 420.869 -40.2028 4.13174 420.869
1723 1 -55.1731 4.10839 427.788 -55.1731 4.10839 427.788
1440 1 -51.6965 4.12155 424.046 -51.6965 4.12155 424.046
1733 1 -48.8977 4.10163 430.221 -48.8977 4.10163 430.221
2018 1 -50.636 4.09522 432.092 -50.636 4.09522 432.092
2015 1 -52.3743 4.08879 433.963 -52.3743 4.08879 433.963
2036 1 -40.8833 4.10034 430.784 -40.8833 4.10034 430.784
2032 1 -42.6221 4.09424 432.654 -42.6221 4.09424 432.654
2326 1 -38.9545 1.86375 437.894 -38.9545 1.86375 437.894
1752 1 -37.4052 4.11214 427.043 -37.4052 4.11214 427.043
1457 1 -41.9424 4.1261 422.739 -41.9424 4.1261 422.739
2043 1 -36.1198 1.14549 431.783 -36.1198 1.14549 431.783
2286 1 -62.995 1.86546 436.209 -62.995 1.86546 436.209
2319 1 -43.0744 1.12105 439.265 -43.0744 1.12105 439.265
1436 1 -53.4348 4.11497 425.917 -53.4348 4.11497 425.917
1422 1 -61.4482 4.11458 425.355 -61.4482 4.11458 425.355
1173 1 -37.8206 0.440359 421.369 -37.8206 0.440359 421.369
2293 1 -59.1012 1.12219 438.142 -59.1012 1.12219 438.142
2289 1 -61.4826 0.385347 437.643 -61.4826 0.385347 437.643
2295 1 -57.5889 4.06952 439.577 -57.5889 4.06952 439.577
1465 1 -37.1781 1.17083 423.738 -37.1781 1.17083 423.738
2315 1 -45.4559 0.384531 438.766 -45.4559 0.384531 438.766
2331 1 -36.3464 4.08662 435.088 -36.3464 4.08662 435.088
2297 1 -56.7198 1.859 438.641 -56.7198 1.859 438.641
2324 1 -39.8237 4.07439 438.829 -39.8237 4.07439 438.829
2306 1 -51.0879 1.12191 438.704 -51.0879 1.12191 438.704
2285 1 -63.2207 0.378919 439.514 -63.2207 0.378919 439.514
1462 1 -38.9176 1.16513 425.608 -38.9176 1.16513 425.608
1751 1 -37.6321 2.62589 430.348 -37.6321 2.62589 430.348
2329 1 -37.2158 1.86987 436.023 -37.2158 1.86987 436.023
2042 1 -36.9893 3.35625 432.718 -36.9893 3.35625 432.718
2041 1 -37.8587 1.13953 433.653 -37.8587 1.13953 433.653
2593 1 -51.957 3.33246 439.639 -51.957 3.33246 439.639
2328 1 -37.4422 0.383412 439.328 -37.4422 0.383412 439.328
2301 1 -54.3384 2.59576 439.14 -54.3384 2.59576 439.14
1466 1 -36.3084 3.38738 422.803 -36.3084 3.38738 422.803
2298 1 -56.494 3.34557 435.335 -56.494 3.34557 435.335
2321 1 -42.2052 3.33791 438.33 -42.2052 3.33791 438.33
2313 1 -46.9682 1.86487 437.332 -46.9682 1.86487 437.332
2294 1 -58.2321 3.33913 437.207 -58.2321 3.33913 437.207
2304 1 -52.6002 2.60215 437.269 -52.6002 2.60215 437.269
2300 1 -54.9816 1.86542 436.77 -54.9816 1.86542 436.77
2290 1 -60.6135 2.60229 436.708 -60.6135 2.60229 436.708
2318 1 -43.7175 0.390812 436.895 -43.7175 0.390812 436.895
2327 1 -38.0852 4.08055 436.958 -38.0852 4.08055 436.958
2004 1 -58.8754 2.60874 434.836 -58.8754 2.60874 434.836
2013 1 -53.2434 1.87185 434.899 -53.2434 1.87185 434.899
2288 1 -62.1259 4.0824 435.273 -62.1259 4.0824 435.273
2037 1 -40.2404 0.403171 433.154 -40.2404 0.403171 433.154
1739 1 -45.4205 4.11421 426.48 -45.4205 4.11421 426.48
1753 1 -36.7625 0.415096 429.413 -36.7625 0.415096 429.413
2307 1 -50.862 2.60855 435.398 -50.862 2.60855 435.398
2314 1 -46.099 4.08175 436.396 -46.099 4.08175 436.396
2040 1 -38.5016 0.409196 431.283 -38.5016 0.409196 431.283
2320 1 -42.8483 2.60766 435.96 -42.8483 2.60766 435.96
2292 1 -59.7444 0.391786 435.772 -59.7444 0.391786 435.772
2311 1 -48.4805 3.34518 435.897 -48.4805 3.34518 435.897
2302 1 -54.1125 4.08236 435.834 -54.1125 4.08236 435.834
2296 1 -57.363 1.12862 436.271 -57.363 1.12862 436.271
1463 1 -38.6904 2.65128 422.304 -38.6904 2.65128 422.304
2287 1 -62.3516 2.59586 438.579 -62.3516 2.59586 438.579
2291 1 -59.9702 3.3327 439.078 -59.9702 3.3327 439.078
2317 1 -44.5867 2.6014 437.831 -44.5867 2.6014 437.831
2038 1 -39.371 2.61993 432.218 -39.371 2.61993 432.218
2305 1 -51.7311 0.391625 436.334 -51.7311 0.391625 436.334
2332 1 -35.7036 0.389526 437.458 -35.7036 0.389526 437.458
1709 1 -63.1864 4.10812 427.227 -63.1864 4.10812 427.227
1468 1 -35.4386 1.17648 421.868 -35.4386 1.17648 421.868
1454 1 -43.6816 4.12027 424.609 -43.6816 4.12027 424.609
1429 1 -57.9718 4.1278 421.613 -57.9718 4.1278 421.613
1133 1 -62.7344 2.65369 420.614 -62.7344 2.65369 420.614
1175 1 -36.9508 2.65689 420.434 -36.9508 2.65689 420.434
2616 1 -38.5376 1.1075 443.569 -38.5376 1.1075 443.569
2901 1 -40.2759 1.10122 445.44 -40.2759 1.10122 445.44
2907 1 -37.0254 4.05466 445.004 -37.0254 4.05466 445.004
3194 1 -38.1204 0.351183 449.245 -38.1204 0.351183 449.245
2587 1 -55.2075 0.378844 440.076 -55.2075 0.378844 440.076
2597 1 -49.5756 4.06909 440.138 -49.5756 4.06909 440.138
2584 1 -56.9456 0.372473 441.947 -56.9456 0.372473 441.947
2581 1 -58.6837 0.366111 443.818 -58.6837 0.366111 443.818
2868 1 -60.4217 0.359746 445.689 -60.4217 0.359746 445.689
2865 1 -62.1596 0.353358 447.561 -62.1596 0.353358 447.561
2601 1 -47.1942 0.378215 440.637 -47.1942 0.378215 440.637
2598 1 -48.9324 0.371886 442.508 -48.9324 0.371886 442.508
2885 1 -50.6705 0.365567 444.38 -50.6705 0.365567 444.38
2882 1 -52.4087 0.359278 446.251 -52.4087 0.359278 446.251
2879 1 -54.1468 0.353031 448.122 -54.1468 0.353031 448.122
2612 1 -40.919 0.37096 443.07 -40.919 0.37096 443.07
2898 1 -42.6573 0.364656 444.941 -42.6573 0.364656 444.941
2895 1 -44.3954 0.358329 446.812 -44.3954 0.358329 446.812
3180 1 -46.1335 0.352007 448.683 -46.1335 0.352007 448.683
2576 1 -61.7083 3.32628 440.949 -61.7083 3.32628 440.949
2574 1 -63.4464 3.31985 442.82 -63.4464 3.31985 442.82
2589 1 -53.6952 3.3261 441.51 -53.6952 3.3261 441.51
2586 1 -55.4333 3.31977 443.382 -55.4333 3.31977 443.382
2874 1 -57.1714 3.31345 445.253 -57.1714 3.31345 445.253
2871 1 -58.9094 3.30715 447.124 -58.9094 3.30715 447.124
3155 1 -60.6474 3.30083 448.995 -60.6474 3.30083 448.995
2607 1 -43.9436 3.33164 440.201 -43.9436 3.33164 440.201
2604 1 -45.6819 3.32533 442.072 -45.6819 3.32533 442.072
2600 1 -47.4201 3.31901 443.943 -47.4201 3.31901 443.943
2887 1 -49.1582 3.31269 445.814 -49.1582 3.31269 445.814
2884 1 -50.8963 3.3064 447.685 -50.8963 3.3064 447.685
3168 1 -52.6344 3.30016 449.557 -52.6344 3.30016 449.557
2900 1 -41.145 3.31179 446.376 -41.145 3.31179 446.376
2897 1 -42.883 3.30546 448.247 -42.883 3.30546 448.247
2582 1 -58.4579 1.85259 440.512 -58.4579 1.85259 440.512
2579 1 -60.196 1.84619 442.384 -60.196 1.84619 442.384
2866 1 -61.934 1.83979 444.255 -61.934 1.83979 444.255
2578 1 -60.8393 1.11576 440.013 -60.8393 1.11576 440.013
2595 1 -50.4447 1.85219 441.074 -50.4447 1.85219 441.074
2592 1 -52.1829 1.84586 442.945 -52.1829 1.84586 442.945
2880 1 -53.921 1.83955 444.816 -53.921 1.83955 444.816
2877 1 -55.6591 1.83328 446.688 -55.6591 1.83328 446.688
2873 1 -57.3971 1.82704 448.559 -57.3971 1.82704 448.559
2609 1 -42.4313 1.8513 441.635 -42.4313 1.8513 441.635
2606 1 -44.1696 1.84499 443.507 -44.1696 1.84499 443.507
2892 1 -45.9077 1.83867 445.378 -45.9077 1.83867 445.378
2890 1 -47.6458 1.83235 447.249 -47.6458 1.83235 447.249
3174 1 -49.3839 1.82606 449.12 -49.3839 1.82606 449.12
2618 1 -37.6684 3.32435 442.634 -37.6684 3.32435 442.634
2585 1 -56.0765 2.58938 441.011 -56.0765 2.58938 441.011
2583 1 -57.8146 2.58302 442.883 -57.8146 2.58302 442.883
2870 1 -59.5527 2.57666 444.754 -59.5527 2.57666 444.754
2867 1 -61.2907 2.57028 446.625 -61.2907 2.57028 446.625
2863 1 -63.0286 2.56387 448.496 -63.0286 2.56387 448.496
2599 1 -48.0633 2.58878 441.573 -48.0633 2.58878 441.573
2596 1 -49.8015 2.58245 443.444 -49.8015 2.58245 443.444
2883 1 -51.5396 2.57614 445.315 -51.5396 2.57614 445.315
2881 1 -53.2777 2.56988 447.187 -53.2777 2.56988 447.187
3164 1 -55.0158 2.56365 449.058 -55.0158 2.56365 449.058
2610 1 -41.7882 2.58154 444.006 -41.7882 2.58154 444.006
2896 1 -43.5263 2.57522 445.877 -43.5263 2.57522 445.877
2893 1 -45.2644 2.56889 447.748 -45.2644 2.56889 447.748
3178 1 -47.0025 2.56259 449.619 -47.0025 2.56259 449.619
2575 1 -62.5774 1.10934 441.885 -62.5774 1.10934 441.885
2591 1 -52.8261 1.11555 440.575 -52.8261 1.11555 440.575
2588 1 -54.5642 1.1092 442.446 -54.5642 1.1092 442.446
2876 1 -56.3023 1.10288 444.317 -56.3023 1.10288 444.317
2872 1 -58.0404 1.09657 446.189 -58.0404 1.09657 446.189
2869 1 -59.7784 1.09026 448.06 -59.7784 1.09026 448.06
2605 1 -44.8128 1.11476 441.136 -44.8128 1.11476 441.136
2602 1 -46.551 1.10845 443.007 -46.551 1.10845 443.007
2889 1 -48.2891 1.10212 444.879 -48.2891 1.10212 444.879
2886 1 -50.0273 1.09582 446.75 -50.0273 1.09582 446.75
3170 1 -51.7654 1.08955 448.621 -51.7654 1.08955 448.621
2899 1 -42.014 1.0949 447.311 -42.014 1.0949 447.311
3184 1 -43.7521 1.08857 449.182 -43.7521 1.08857 449.182
2580 1 -59.3269 4.06312 441.448 -59.3269 4.06312 441.448
2577 1 -61.065 4.05672 443.319 -61.065 4.05672 443.319
2864 1 -62.803 4.0503 445.19 -62.803 4.0503 445.19
2862 1 -63.672 1.83336 446.126 -63.672 1.83336 446.126
2594 1 -51.3138 4.06275 442.009 -51.3138 4.06275 442.009
2590 1 -53.0519 4.05643 443.881 -53.0519 4.05643 443.881
2878 1 -54.79 4.05014 445.752 -54.79 4.05014 445.752
2875 1 -56.5281 4.04388 447.623 -56.5281 4.04388 447.623
3159 1 -58.2661 4.03765 449.495 -58.2661 4.03765 449.495
2611 1 -41.5621 4.06816 440.7 -41.5621 4.06816 440.7
2608 1 -43.3005 4.06187 442.571 -43.3005 4.06187 442.571
2894 1 -45.0387 4.05556 444.442 -45.0387 4.05556 444.442
2891 1 -46.7768 4.04923 446.313 -46.7768 4.04923 446.313
2888 1 -48.5149 4.04292 448.184 -48.5149 4.04292 448.184
2904 1 -38.7636 4.04836 446.875 -38.7636 4.04836 446.875
2621 1 -35.93 3.33055 440.763 -35.93 3.33055 440.763
2617 1 -38.3115 2.59405 440.264 -38.3115 2.59405 440.264
2614 1 -40.0499 2.58782 442.135 -40.0499 2.58782 442.135
2908 1 -36.3823 0.35751 447.374 -36.3823 0.35751 447.374
2619 1 -36.7992 1.11373 441.698 -36.7992 1.11373 441.698
2906 1 -37.2514 2.56808 448.31 -37.2514 2.56808 448.31
2905 1 -37.8945 1.83779 445.939 -37.8945 1.83779 445.939
2620 1 -36.1562 1.84405 444.069 -36.1562 1.84405 444.069
3190 1 -40.5017 4.04204 448.746 -40.5017 4.04204 448.746
2902 1 -39.6327 1.83148 447.81 -39.6327 1.83148 447.81
2903 1 -39.4068 3.31809 444.505 -39.4068 3.31809 444.505
2615 1 -39.1807 0.377218 441.199 -39.1807 0.377218 441.199
2909 1 -35.5132 2.57438 446.439 -35.5132 2.57438 446.439
14 1 -54.871 4.22473 400.037 -54.871 4.22473 400.037
7 1 -59.5702 2.72043 399.127 -59.5702 2.72043 399.127
25 1 -46.8535 4.21537 400.511 -46.8535 4.21537 400.511
38 1 -38.8316 4.17328 401.026 -38.8316 4.17328 401.026
23 1 -48.5946 4.19318 402.376 -48.5946 4.19318 402.376
287 1 -52.0708 4.17283 406.087 -52.0708 4.17283 406.087
878 1 -42.9998 4.15124 414.696 -42.9998 4.15124 414.696
579 1 -49.2775 4.15959 412.262 -49.2775 4.15959 412.262
585 1 -45.7963 4.17129 408.524 -45.7963 4.17129 408.524
290 1 -50.3348 4.17975 404.217 -50.3348 4.17975 404.217
11 1 -56.6008 4.17459 401.811 -56.6008 4.17459 401.811
595 1 -39.52 4.16264 410.956 -39.52 4.16264 410.956
1134 1 -62.5082 4.14026 417.308 -62.5082 4.14026 417.308
283 1 -53.8134 4.17025 407.955 -53.8134 4.17025 407.955
582 1 -47.5366 4.16511 410.394 -47.5366 4.16511 410.394
276 1 -58.3522 4.18826 403.664 -58.3522 4.18826 403.664
569 1 -55.5562 4.1676 409.822 -55.5562 4.1676 409.822
847 1 -60.7702 4.14705 415.436 -60.7702 4.14705 415.436
556 1 -63.568 4.16627 409.258 -63.568 4.16627 409.258
272 1 -60.1006 4.18838 405.51 -60.1006 4.18838 405.51
3 1 -61.3934 2.73415 400.808 -61.3934 2.73415 400.808
35 1 -40.5731 4.19056 402.902 -40.5731 4.19056 402.902
598 1 -37.7804 4.16871 409.086 -37.7804 4.16871 409.086
850 1 -59.0325 4.15419 413.564 -59.0325 4.15419 413.564
304 1 -42.3135 4.18425 404.784 -42.3135 4.18425 404.784