ITEM: TIMESTEP
0
ITEM: NUMBER OF ATOMS
4630
ITEM: BOX BOUNDS xy xz yz pp pp pp
-6.2648532208673345e+01 1.0566756405687335e+02 0.0000000000000000e+00
0.0000000000000000e+00 4.4274527100805940e+00 0.0000000000000000e+00
3.8000000000000000e+02 5.0000000000000000e+02 0.0000000000000000e+00
ITEM: ATOMS id type x y z xu yu zu
7 1 -58.4762 2.96799 398.792 -58.4762 2.96799 398.792
27 1 -45.1075 2.25725 399.324 -45.1075 2.25725 399.324
36 1 -39.5438 1.51459 399.38 -39.5438 1.51459 399.38
45 1 -33.9844 0.774378 399.441 -33.9844 0.774378 399.441
85 1 -8.5557 0.774385 399.269 -8.5557 0.774385 399.269
94 1 -2.99334 0.0321789 399.331 -2.99334 0.0321789 399.331
103 1 2.5633 3.72075 399.398 2.5633 3.72075 399.398
112 1 8.11773 2.98253 399.465 8.11773 2.98253 399.465
152 1 33.5157 2.99492 399.305 33.5157 2.99492 399.305
161 1 39.0718 2.25437 399.366 39.0718 2.25437 399.366
170 1 44.6231 1.51656 399.43 44.6231 1.51656 399.43
227 1 81.1171 0.0477264 399.358 81.1171 0.0477264 399.358
236 1 86.6758 3.73334 399.411 86.6758 3.73334 399.411
245 1 92.2304 2.99428 399.468 92.2304 2.99428 399.468
5 1 -59.3844 0.750678 399.59 -59.3844 0.750678 399.59
2 1 -61.1399 0.762663 401.393 -61.1399 0.762663 401.393
3 1 -60.297 2.97543 400.481 -60.297 2.97543 400.481
1 1 -61.9769 2.94251 402.345 106.339 2.94251 402.345
4 1 -59.6323 3.688 402.829 -59.6323 3.688 402.829
9 1 -57.0089 1.41251 400.05 -57.0089 1.41251 400.05
8 1 -57.8804 3.67042 401.015 -57.8804 3.67042 401.015
10 1 -56.4022 2.17909 402.42 -56.4022 2.17909 402.42
6 1 -58.7658 1.47616 401.894 -58.7658 1.47616 401.894
11 1 -55.5509 4.40477 401.499 -55.5509 4.40477 401.499
12 1 -54.6966 2.23148 400.539 -54.6966 2.23148 400.539
16 1 -52.3352 2.92441 400.999 -52.3352 2.92441 400.999
15 1 -53.1972 0.719356 401.988 -53.1972 0.719356 401.988
14 1 -53.8661 0.0332563 399.694 -53.8661 0.0332563 399.694
17 1 -51.4849 0.725455 400.136 -51.4849 0.725455 400.136
13 1 -54.047 2.92051 402.9 -54.047 2.92051 402.9
22 1 -48.2791 3.69888 399.735 -48.2791 3.69888 399.735
20 1 -49.1385 1.47838 400.589 -49.1385 1.47838 400.589
19 1 -50.0053 3.66713 401.528 -50.0053 3.66713 401.528
18 1 -50.8488 1.4473 402.474 -50.8488 1.4473 402.474
21 1 -48.5127 2.19389 402.972 -48.5127 2.19389 402.972
23 1 -47.6546 4.41957 402.05 -47.6546 4.41957 402.05
26 1 -45.295 0.72221 402.52 -45.295 0.72221 402.52
24 1 -46.8095 2.21008 401.113 -46.8095 2.21008 401.113
28 1 -44.4427 2.94428 401.612 -44.4427 2.94428 401.612
25 1 -45.9433 0.0282247 400.17 -45.9433 0.0282247 400.17
29 1 -43.5778 0.719107 400.623 -43.5778 0.719107 400.623
31 1 -42.7236 2.94754 399.763 -42.7236 2.94754 399.763
34 1 -40.3814 3.71335 400.224 -40.3814 3.71335 400.224
32 1 -42.0909 3.67431 402.102 -42.0909 3.67431 402.102
33 1 -41.2519 1.46856 401.165 -41.2519 1.46856 401.165
30 1 -42.9544 1.4498 403.025 -42.9544 1.4498 403.025
35 1 -39.7359 4.40912 402.577 -39.7359 4.40912 402.577
40 1 -37.1624 2.20655 399.823 -37.1624 2.20655 399.823
37 1 -38.8842 2.20317 401.67 -38.8842 2.20317 401.67
41 1 -36.5323 2.93368 402.163 -36.5323 2.93368 402.163
38 1 -38.0169 4.40537 400.682 -38.0169 4.40537 400.682
39 1 -37.3962 0.709515 403.085 -37.3962 0.709515 403.085
43 1 -34.8217 2.97313 400.285 -34.8217 2.97313 400.285
42 1 -35.6924 0.728106 401.226 -35.6924 0.728106 401.226
44 1 -34.1775 3.6686 402.638 -34.1775 3.6686 402.638
46 1 -33.3254 1.46273 401.732 -33.3254 1.46273 401.732
47 1 -32.4579 3.66509 400.744 -32.4579 3.66509 400.744
49 1 -31.6034 1.46625 399.885 -31.6034 1.46625 399.885
52 1 -29.2632 2.23282 400.348 -29.2632 2.23282 400.348
50 1 -30.9741 2.19327 402.225 -30.9741 2.19327 402.225
51 1 -30.134 4.41523 401.289 -30.134 4.41523 401.289
53 1 -28.6196 2.92806 402.702 -28.6196 2.92806 402.702
54 1 -28.4262 0.034027 399.504 -28.4262 0.034027 399.504
48 1 -31.8381 4.39652 403.147 -31.8381 4.39652 403.147
58 1 -26.0454 0.725711 399.948 -26.0454 0.725711 399.948
59 1 -25.4166 1.45266 402.289 -25.4166 1.45266 402.289
56 1 -26.8998 2.92461 400.808 -26.8998 2.92461 400.808
55 1 -27.7675 0.722189 401.795 -27.7675 0.722189 401.795
60 1 -24.5764 3.67466 401.353 -24.5764 3.67466 401.353
57 1 -26.2806 3.65592 403.211 -26.2806 3.65592 403.211
61 1 -23.7058 1.49224 400.411 -23.7058 1.49224 400.411
63 1 -22.869 3.72088 399.568 -22.869 3.72088 399.568
62 1 -23.0624 2.18723 402.766 -23.0624 2.18723 402.766
64 1 -22.2103 4.40879 401.859 -22.2103 4.40879 401.859
65 1 -21.3428 2.1837 400.872 -21.3428 2.1837 400.872
66 1 -20.7238 2.91495 403.275 -20.7238 2.91495 403.275
70 1 -18.1492 0.750998 400.475 -18.1492 0.750998 400.475
68 1 -19.8597 0.71165 402.353 -19.8597 0.71165 402.353
69 1 -19.0201 2.93343 401.417 -19.0201 2.93343 401.417
67 1 -20.4884 4.41221 400.012 -20.4884 4.41221 400.012
72 1 -17.3146 2.97929 399.631 -17.3146 2.97929 399.631
71 1 -17.5054 1.44608 402.83 -17.5054 1.44608 402.83
75 1 -14.9351 3.67142 400.074 -14.9351 3.67142 400.074
74 1 -15.7866 1.44303 400.935 -15.7866 1.44303 400.935
73 1 -16.6546 3.66736 401.922 -16.6546 3.66736 401.922
76 1 -14.3027 4.39332 402.412 -14.3027 4.39332 402.412
77 1 -13.4566 2.18503 401.467 -13.4566 2.18503 401.467
348 1 -15.1641 2.17114 403.335 -15.1641 2.17114 403.335
80 1 -11.7277 2.21635 399.676 -11.7277 2.21635 399.676
81 1 -11.1059 2.93706 401.992 -11.1059 2.93706 401.992
78 1 -12.5885 4.42339 400.529 -12.5885 4.42339 400.529
79 1 -11.9657 0.711715 402.912 -11.9657 0.711715 402.912
83 1 -9.39236 2.97284 400.113 -9.39236 2.97284 400.113
82 1 -10.2598 0.727338 401.056 -10.2598 0.727338 401.056
87 1 -7.02737 3.66372 400.57 -7.02737 3.66372 400.57
84 1 -8.74666 3.66697 402.465 -8.74666 3.66697 402.465
86 1 -7.89344 1.46146 401.558 -7.89344 1.46146 401.558
89 1 -6.17237 1.46468 399.711 -6.17237 1.46468 399.711
90 1 -5.54227 2.19162 402.051 -5.54227 2.19162 402.051
88 1 -6.40657 4.39457 402.973 -6.40657 4.39457 402.973
92 1 -3.83121 2.23092 400.174 -3.83121 2.23092 400.174
93 1 -3.1881 2.92655 402.528 -3.1881 2.92655 402.528
91 1 -4.70251 4.41343 401.114 -4.70251 4.41343 401.114
96 1 -1.46765 2.92315 400.635 -1.46765 2.92315 400.635
95 1 -2.33579 0.720705 401.622 -2.33579 0.720705 401.622
98 1 -0.612731 0.724363 399.776 -0.612731 0.724363 399.776
100 1 0.8553 3.67404 401.182 0.8553 3.67404 401.182
99 1 0.0147902 1.45178 402.117 0.0147902 1.45178 402.117
97 1 -0.849525 3.65484 403.039 -0.849525 3.65484 403.039
101 1 1.72636 1.49198 400.241 1.72636 1.49198 400.241
102 1 2.36838 2.18708 402.596 2.36838 2.18708 402.596
105 1 4.08883 2.18437 400.703 4.08883 2.18437 400.703
104 1 3.22074 4.40897 401.689 3.22074 4.40897 401.689
108 1 5.57029 0.713005 402.185 5.57029 0.713005 402.185
107 1 4.9434 4.41306 399.843 4.9434 4.41306 399.843
106 1 4.70609 2.91582 403.107 4.70609 2.91582 403.107
110 1 7.28147 0.753749 400.309 7.28147 0.753749 400.309
111 1 7.92315 1.44841 402.664 7.92315 1.44841 402.664
109 1 6.41068 2.93559 401.25 6.41068 2.93559 401.25
113 1 8.77528 3.67048 401.758 8.77528 3.67048 401.758
114 1 9.64322 1.44613 400.771 9.64322 1.44613 400.771
116 1 10.4974 3.67482 399.911 10.4974 3.67482 399.911
118 1 11.9642 2.19756 401.319 11.9642 2.19756 401.319
117 1 11.124 4.4022 402.254 11.124 4.4022 402.254
121 1 13.6702 2.24464 399.534 13.6702 2.24464 399.534
120 1 13.4763 0.710142 402.733 13.4763 0.710142 402.733
119 1 12.8347 0.0158678 400.377 12.8347 0.0158678 400.377
115 1 10.2601 2.17739 403.176 10.2601 2.17739 403.176
122 1 14.3281 2.93233 401.826 14.3281 2.93233 401.826
123 1 15.1958 0.708178 400.839 15.1958 0.708178 400.839
125 1 16.0496 2.93682 399.979 16.0496 2.93682 399.979
126 1 16.6761 3.66418 402.323 16.6761 3.66418 402.323
127 1 17.516 1.45972 401.388 17.516 1.45972 401.388
124 1 15.8125 1.43926 403.245 15.8125 1.43926 403.245
130 1 19.2208 1.50686 399.601 19.2208 1.50686 399.601
128 1 18.386 3.70556 400.445 18.386 3.70556 400.445
129 1 19.0279 4.39942 402.802 19.0279 4.39942 402.802
131 1 19.8793 2.19421 401.894 19.8793 2.19421 401.894
132 1 20.7465 4.39755 400.907 20.7465 4.39755 400.907
133 1 21.3636 0.701041 403.313 21.3636 0.701041 403.313
134 1 21.6 2.19871 400.047 21.6 2.19871 400.047
136 1 23.0659 0.721371 401.455 23.0659 0.721371 401.455
135 1 22.2269 2.92598 402.39 22.2269 2.92598 402.39
139 1 24.768 0.768174 399.667 24.768 0.768174 399.667
137 1 23.9358 2.96724 400.513 23.9358 2.96724 400.513
138 1 24.5788 3.66105 402.869 24.5788 3.66105 402.869
141 1 26.296 3.65975 400.973 26.296 3.65975 400.973
140 1 25.4285 1.4556 401.96 25.4285 1.4556 401.96
142 1 27.1461 1.46076 400.111 27.1461 1.46076 400.111
143 1 27.7775 2.18279 402.451 27.7775 2.18279 402.451
144 1 28.6228 4.40297 401.507 28.6228 4.40297 401.507
145 1 29.4896 2.21453 400.567 29.4896 2.21453 400.567
147 1 30.3479 0.0074689 399.713 30.3479 0.0074689 399.713
146 1 30.112 2.9296 402.953 30.112 2.9296 402.953
150 1 32.6812 0.765851 400.151 32.6812 0.765851 400.151
148 1 30.9705 0.728361 402.031 30.9705 0.728361 402.031
149 1 31.8154 2.94721 401.095 31.8154 2.94721 401.095
153 1 34.1794 3.68128 401.596 34.1794 3.68128 401.596
151 1 33.3275 1.45868 402.504 33.3275 1.45868 402.504
156 1 35.898 3.68534 399.747 35.898 3.68534 399.747
154 1 35.0444 1.45688 400.607 35.0444 1.45688 400.607
157 1 36.5281 4.41233 402.089 36.5281 4.41233 402.089
155 1 35.6651 2.18716 403.012 35.6651 2.18716 403.012
158 1 37.3667 2.20751 401.152 37.3667 2.20751 401.152
159 1 38.2366 0.0256192 400.21 38.2366 0.0256192 400.21
162 1 39.7314 2.94211 401.658 39.7314 2.94211 401.658
160 1 38.8805 0.719968 402.566 38.8805 0.719968 402.566
163 1 40.5984 0.71787 400.67 40.5984 0.71787 400.67
165 1 41.4517 2.94655 399.81 41.4517 2.94655 399.81
164 1 41.217 1.44887 403.076 41.217 1.44887 403.076
168 1 43.7887 3.71524 400.274 43.7887 3.71524 400.274
167 1 42.9192 1.46936 401.217 42.9192 1.46936 401.217
166 1 42.0799 3.67383 402.153 42.0799 3.67383 402.153
169 1 44.4321 4.4091 402.63 44.4321 4.4091 402.63
171 1 45.283 2.20398 401.722 45.283 2.20398 401.722
174 1 47.0027 2.20867 399.873 47.0027 2.20867 399.873
175 1 47.631 2.93578 402.216 47.631 2.93578 402.216
172 1 46.1498 4.40745 400.734 46.1498 4.40745 400.734
173 1 46.7683 0.710695 403.14 46.7683 0.710695 403.14
177 1 49.3393 2.9774 400.338 49.3393 2.9774 400.338
176 1 48.4701 0.731464 401.28 48.4701 0.731464 401.28
179 1 50.1733 0.778701 399.493 50.1733 0.778701 399.493
181 1 51.7002 3.66946 400.797 51.7002 3.66946 400.797
178 1 49.9829 3.67096 402.693 49.9829 3.67096 402.693
180 1 50.8336 1.4659 401.785 50.8336 1.4659 401.785
183 1 52.5528 1.47066 399.936 52.5528 1.47066 399.936
184 1 53.1814 2.19764 402.279 53.1814 2.19764 402.279
186 1 54.8893 2.2393 400.4 54.8893 2.2393 400.4
187 1 55.5332 2.93267 402.756 55.5332 2.93267 402.756
188 1 55.7228 0.040578 399.555 55.7228 0.040578 399.555
185 1 54.0203 4.42082 401.343 54.0203 4.42082 401.343
182 1 52.319 4.39995 403.203 52.319 4.39995 403.203
189 1 56.3837 0.727624 401.847 56.3837 0.727624 401.847
192 1 58.1024 0.732378 399.998 58.1024 0.732378 399.998
194 1 59.5701 3.68241 401.405 59.5701 3.68241 401.405
193 1 58.7314 1.45924 402.341 58.7314 1.45924 402.341
190 1 57.25 2.93121 400.859 57.25 2.93121 400.859
191 1 57.8692 3.66156 403.265 57.8692 3.66156 403.265
195 1 60.4388 1.50087 400.461 60.4388 1.50087 400.461
197 1 61.272 3.72956 399.616 61.272 3.72956 399.616
199 1 62.7995 2.19261 400.92 62.7995 2.19261 400.92
196 1 61.0832 2.19412 402.817 61.0832 2.19412 402.817
198 1 61.9334 4.41649 401.908 61.9334 4.41649 401.908
200 1 63.4192 2.92288 403.326 63.4192 2.92288 403.326
202 1 64.2812 0.720515 402.401 64.2812 0.720515 402.401
201 1 63.6516 4.42118 400.058 63.6516 4.42118 400.058
206 1 66.8209 2.99071 399.675 66.8209 2.99071 399.675
204 1 65.988 0.762041 400.521 65.988 0.762041 400.521
203 1 65.1196 2.94366 401.465 65.1196 2.94366 401.465
205 1 66.633 1.45517 402.877 66.633 1.45517 402.877
207 1 67.483 3.67748 401.968 67.483 3.67748 401.968
209 1 69.2006 3.68199 400.117 69.2006 3.68199 400.117
208 1 68.3486 1.45345 400.979 68.3486 1.45345 400.979
211 1 70.6686 2.20406 401.524 70.6686 2.20406 401.524
210 1 69.8309 4.40869 402.46 69.8309 4.40869 402.46
212 1 71.537 0.022349 400.58 71.537 0.022349 400.58
214 1 72.3679 2.25066 399.733 72.3679 2.25066 399.733
217 1 74.7467 2.94275 400.173 74.7467 2.94275 400.173
216 1 73.8978 0.714337 401.036 73.8978 0.714337 401.036
215 1 73.0318 2.93771 402.025 73.0318 2.93771 402.025
213 1 72.1834 0.715746 402.935 72.1834 0.715746 402.935
218 1 75.3817 3.6643 402.512 75.3817 3.6643 402.512
220 1 77.0913 3.6957 400.626 77.0913 3.6957 400.626
219 1 76.2257 1.45686 401.566 76.2257 1.45686 401.566
222 1 77.9488 1.48859 399.77 77.9488 1.48859 399.77
223 1 78.5746 2.20914 402.087 78.5746 2.20914 402.087
221 1 77.7172 4.41054 403.01 77.7172 4.41054 403.01
224 1 79.4185 0.000294049 401.149 79.4185 0.000294049 401.149
225 1 80.2832 2.24616 400.205 80.2832 2.24616 400.205
229 1 82.6475 2.93686 400.657 82.6475 2.93686 400.657
228 1 81.7837 0.734057 401.647 81.7837 0.734057 401.647
226 1 80.9327 2.93907 402.556 80.9327 2.93907 402.556
231 1 83.5004 0.737834 399.796 83.5004 0.737834 399.796
234 1 85.8406 1.50464 400.256 85.8406 1.50464 400.256
233 1 84.9716 3.68683 401.199 84.9716 3.68683 401.199
235 1 86.4875 2.19932 402.61 86.4875 2.19932 402.61
232 1 84.1339 1.46452 402.136 84.1339 1.46452 402.136
230 1 83.2718 3.66699 403.061 83.2718 3.66699 403.061
241 1 89.6879 0.724906 402.193 89.6879 0.724906 402.193
238 1 88.2038 2.19665 400.713 88.2038 2.19665 400.713
240 1 89.0566 4.42529 399.852 89.0566 4.42529 399.852
237 1 87.3377 4.42124 401.701 87.3377 4.42124 401.701
239 1 88.8257 2.92769 403.117 88.8257 2.92769 403.117
242 1 90.5266 2.94747 401.256 90.5266 2.94747 401.256
243 1 91.3955 0.765509 400.313 91.3955 0.765509 400.313
247 1 93.758 1.45723 400.77 93.758 1.45723 400.77
246 1 92.8921 3.68186 401.759 92.8921 3.68186 401.759
244 1 92.0415 1.45989 402.667 92.0415 1.45989 402.667
254 1 97.7823 2.25264 399.526 97.7823 2.25264 399.526
249 1 94.6112 3.68586 399.909 94.6112 3.68586 399.909
253 1 97.5957 0.720646 402.725 97.5957 0.720646 402.725
251 1 96.0799 2.20745 401.314 96.0799 2.20745 401.314
252 1 96.95 0.0248951 400.371 96.95 0.0248951 400.371
250 1 95.2419 4.41287 402.251 95.2419 4.41287 402.251
248 1 94.3793 2.1884 403.174 94.3793 2.1884 403.174
258 1 100.161 2.94286 399.968 100.161 2.94286 399.968
255 1 98.4449 2.94179 401.817 98.4449 2.94179 401.817
259 1 100.791 3.6788 402.314 100.791 3.6788 402.314
260 1 101.631 1.47735 401.383 101.631 1.47735 401.383
256 1 99.3133 0.716658 400.829 99.3133 0.716658 400.829
257 1 99.9323 1.45319 403.236 99.9323 1.45319 403.236
263 1 103.329 1.52061 399.617 103.329 1.52061 399.617
261 1 102.482 3.7255 400.439 102.482 3.7255 400.439
264 1 104.02 2.20107 401.857 104.02 2.20107 401.857
265 1 104.86 4.39697 400.891 104.86 4.39697 400.891
262 1 103.154 4.40937 402.778 103.154 4.40937 402.778
266 1 105.492 0.70825 403.288 105.492 0.70825 403.288
268 1 -61.3289 3.65487 404.728 -61.3289 3.65487 404.728
271 1 -59.8372 2.16587 406.177 -59.8372 2.16587 406.177
270 1 -60.4785 1.45612 403.776 -60.4785 1.45612 403.776
267 1 -62.1819 1.42981 405.676 -62.1819 1.42981 405.676
272 1 -58.9869 4.392 405.232 -58.9869 4.392 405.232
269 1 -60.6909 4.3682 407.124 -60.6909 4.3682 407.124
277 1 -56.6331 0.69397 405.738 -56.6331 0.69397 405.738
274 1 -58.1324 2.18879 404.285 -58.1324 2.18879 404.285
278 1 -55.7714 2.91114 404.793 -55.7714 2.91114 404.793
275 1 -57.4883 2.89883 406.678 -57.4883 2.89883 406.678
276 1 -57.274 4.40518 403.36 -57.274 4.40518 403.36
279 1 -55.1367 3.62744 407.183 -55.1367 3.62744 407.183
280 1 -54.9117 0.700831 403.859 -54.9117 0.700831 403.859
286 1 -51.7086 3.651 403.4 -51.7086 3.651 403.4
282 1 -53.4193 3.63876 405.296 -53.4193 3.63876 405.296
284 1 -52.5612 1.43346 404.359 -52.5612 1.43346 404.359
281 1 -54.2788 1.42013 406.243 -54.2788 1.42013 406.243
285 1 -51.9285 2.15278 406.748 -51.9285 2.15278 406.748
291 1 -48.7236 0.684491 406.306 -48.7236 0.684491 406.306
288 1 -50.2166 2.1722 404.861 -50.2166 2.1722 404.861
292 1 -47.8683 2.90921 405.362 -47.8683 2.90921 405.362
287 1 -51.0726 4.37427 405.801 -51.0726 4.37427 405.801
290 1 -49.3649 4.39446 403.915 -49.3649 4.39446 403.915
294 1 -47.011 0.706405 404.418 -47.011 0.706405 404.418
297 1 -45.5182 3.64159 405.865 -45.5182 3.64159 405.865
296 1 -46.1582 2.92749 403.476 -46.1582 2.92749 403.476
298 1 -44.6621 1.43665 404.917 -44.6621 1.43665 404.917
295 1 -46.3737 1.4186 406.808 -46.3737 1.4186 406.808
300 1 -43.8056 3.66002 403.981 -43.8056 3.66002 403.981
306 1 -40.6 2.18557 403.533 -40.6 2.18557 403.533
302 1 -42.3114 2.16834 405.419 -42.3114 2.16834 405.419
304 1 -41.4518 4.3927 404.475 -41.4518 4.3927 404.475
301 1 -43.1664 4.37397 406.365 -43.1664 4.37397 406.365
305 1 -40.8166 0.678625 406.866 -40.8166 0.678625 406.866
307 1 -39.9612 2.90107 405.923 -39.9612 2.90107 405.923
310 1 -38.2483 2.91968 404.04 -38.2483 2.91968 404.04
312 1 -36.7542 1.42834 405.479 -36.7542 1.42834 405.479
311 1 -37.6096 3.63389 406.425 -37.6096 3.63389 406.425
308 1 -39.1044 0.696259 404.976 -39.1044 0.696259 404.976
313 1 -35.8945 3.65249 404.536 -35.8945 3.65249 404.536
315 1 -35.042 1.44523 403.594 -35.042 1.44523 403.594
316 1 -34.4042 2.16096 405.985 -34.4042 2.16096 405.985
317 1 -33.547 4.38339 405.038 -33.547 4.38339 405.038
314 1 -35.2599 4.36609 406.927 -35.2599 4.36609 406.927
319 1 -32.6905 2.17926 404.102 -32.6905 2.17926 404.102
320 1 -32.0526 2.89363 406.487 -32.0526 2.89363 406.487
324 1 -29.4843 0.704726 403.657 -29.4843 0.704726 403.657
321 1 -31.197 0.687935 405.541 -31.197 0.687935 405.541
322 1 -30.3369 2.91201 404.599 -30.3369 2.91201 404.599
323 1 -29.703 3.62571 406.99 -29.703 3.62571 406.99
325 1 -28.847 1.42048 406.048 -28.847 1.42048 406.048
328 1 -27.133 1.43866 404.165 -27.133 1.43866 404.165
326 1 -27.9897 3.64284 405.101 -27.9897 3.64284 405.101
329 1 -26.4956 2.15307 406.551 -26.4956 2.15307 406.551
330 1 -25.6398 4.37476 405.605 -25.6398 4.37476 405.605
331 1 -24.7797 2.17132 404.663 -24.7797 2.17132 404.663
337 1 -21.576 0.697797 404.229 -21.576 0.697797 404.229
334 1 -23.2901 0.679766 406.112 -23.2901 0.679766 406.112
335 1 -22.4327 2.90203 405.165 -22.4327 2.90203 405.165
333 1 -23.927 4.39145 403.721 -23.927 4.39145 403.721
338 1 -20.9387 1.41224 406.615 -20.9387 1.41224 406.615
332 1 -24.1461 2.88507 407.054 -24.1461 2.88507 407.054
340 1 -19.2227 1.43032 404.727 -19.2227 1.43032 404.727
342 1 -18.3704 3.65027 403.785 -18.3704 3.65027 403.785
339 1 -20.083 3.63382 405.669 -20.083 3.63382 405.669
344 1 -16.875 2.15993 405.228 -16.875 2.15993 405.228
343 1 -17.7332 4.36556 406.176 -17.7332 4.36556 406.176
341 1 -18.5891 2.14381 407.118 -18.5891 2.14381 407.118
347 1 -15.3848 0.672303 406.683 -15.3848 0.672303 406.683
349 1 -14.529 2.89435 405.737 -14.529 2.89435 405.737
346 1 -16.019 4.38232 404.292 -16.019 4.38232 404.292
350 1 -13.6727 0.691546 404.798 -13.6727 0.691546 404.798
351 1 -13.0359 1.40764 407.188 -13.0359 1.40764 407.188
353 1 -12.1797 3.63085 406.245 -12.1797 3.63085 406.245
352 1 -12.8192 2.91297 403.854 -12.8192 2.91297 403.854
354 1 -11.3236 1.42755 405.302 -11.3236 1.42755 405.302
356 1 -10.465 3.65173 404.36 -10.465 3.65173 404.36
358 1 -9.61105 1.44499 403.419 -9.61105 1.44499 403.419
357 1 -9.82961 4.36429 406.751 -9.82961 4.36429 406.751
363 1 -6.6216 2.89162 406.313 -6.6216 2.89162 406.313
359 1 -8.97323 2.15945 405.809 -8.97323 2.15945 405.809
362 1 -7.25872 2.17741 403.927 -7.25872 2.17741 403.927
360 1 -8.11612 4.38169 404.863 -8.11612 4.38169 404.863
364 1 -5.7658 0.685845 405.367 -5.7658 0.685845 405.367
368 1 -4.05294 0.702972 403.483 -4.05294 0.702972 403.483
366 1 -4.90546 2.91011 404.425 -4.90546 2.91011 404.425
369 1 -3.4163 1.41865 405.875 -3.4163 1.41865 405.875
367 1 -4.27227 3.62371 406.817 -4.27227 3.62371 406.817
370 1 -2.5588 3.6413 404.928 -2.5588 3.6413 404.928
372 1 -1.70215 1.43735 403.993 -1.70215 1.43735 403.993
376 1 0.650564 2.17053 404.492 0.650564 2.17053 404.492
373 1 -1.06552 2.15169 406.379 -1.06552 2.15169 406.379
374 1 -0.209646 4.37369 405.434 -0.209646 4.37369 405.434
379 1 2.13926 0.679289 405.943 2.13926 0.679289 405.943
378 1 1.50348 4.39095 403.551 1.50348 4.39095 403.551
377 1 1.28319 2.88424 406.885 1.28319 2.88424 406.885
383 1 4.48954 1.4125 406.448 4.48954 1.4125 406.448
380 1 2.99677 2.90195 404.997 2.99677 2.90195 404.997
382 1 3.85354 0.69811 404.061 3.85354 0.69811 404.061
384 1 5.34541 3.63459 405.503 5.34541 3.63459 405.503
385 1 6.20558 1.43155 404.561 6.20558 1.43155 404.561
387 1 7.05841 3.65215 403.62 7.05841 3.65215 403.62
388 1 7.69376 4.36785 406.012 7.69376 4.36785 406.012
386 1 6.83776 2.14525 406.954 6.83776 2.14525 406.954
389 1 8.55115 2.16317 405.066 8.55115 2.16317 405.066
391 1 9.40775 4.38693 404.13 9.40775 4.38693 404.13
392 1 10.0435 0.673788 406.517 10.0435 0.673788 406.517
393 1 10.8992 2.896 405.572 10.8992 2.896 405.572
394 1 11.7592 0.693078 404.63 11.7592 0.693078 404.63
396 1 12.6118 2.91381 403.689 12.6118 2.91381 403.689
397 1 13.247 3.6294 406.081 13.247 3.6294 406.081
395 1 12.3912 1.4067 407.023 12.3912 1.4067 407.023
398 1 14.1042 1.42481 405.135 14.1042 1.42481 405.135
400 1 14.9605 3.64866 404.199 14.9605 3.64866 404.199
401 1 15.5963 4.3629 406.587 15.5963 4.3629 406.587
402 1 16.4518 2.15773 405.641 16.4518 2.15773 405.641
403 1 17.3114 4.38231 404.699 17.3114 4.38231 404.699
405 1 18.1638 2.17566 403.757 18.1638 2.17566 403.757
406 1 18.7992 2.89118 406.15 18.7992 2.89118 406.15
409 1 20.5121 2.91046 404.267 20.5121 2.91046 404.267
410 1 21.1482 3.62464 406.655 21.1482 3.62464 406.655
407 1 19.656 0.686585 405.204 19.656 0.686585 405.204
404 1 17.9436 0.668433 407.092 17.9436 0.668433 407.092
412 1 22.8629 3.64402 404.766 22.8629 3.64402 404.766
411 1 22.0033 1.41944 405.709 22.0033 1.41944 405.709
415 1 24.3508 2.15214 406.217 24.3508 2.15214 406.217
414 1 23.7145 1.43724 403.825 23.7145 1.43724 403.825
416 1 25.2082 4.37458 405.269 25.2082 4.37458 405.269
413 1 23.4956 4.35719 407.16 23.4956 4.35719 407.16
418 1 26.0633 2.17018 404.332 26.0633 2.17018 404.332
419 1 26.6968 2.88734 406.725 26.6968 2.88734 406.725
420 1 26.9172 4.38733 403.375 26.9172 4.38733 403.375
421 1 27.5517 0.682667 405.779 27.5517 0.682667 405.779
422 1 28.407 2.908 404.839 28.407 2.908 404.839
424 1 29.2596 0.702778 403.895 29.2596 0.702778 403.895
426 1 30.754 3.64478 405.344 30.754 3.64478 405.344
425 1 29.8989 1.42002 406.287 29.8989 1.42002 406.287
430 1 32.4644 3.66358 403.46 32.4644 3.66358 403.46
428 1 31.6115 1.44214 404.401 31.6115 1.44214 404.401
429 1 32.2468 2.15414 406.793 32.2468 2.15414 406.793
432 1 33.9581 2.17281 404.903 33.9581 2.17281 404.903
431 1 33.1022 4.37739 405.851 33.1022 4.37739 405.851
435 1 35.4518 0.682747 406.354 35.4518 0.682747 406.354
436 1 36.3064 2.90508 405.407 36.3064 2.90508 405.407
434 1 34.8143 4.39665 403.967 34.8143 4.39665 403.967
440 1 38.0169 2.92341 403.522 38.0169 2.92341 403.522
438 1 37.1655 0.70248 404.464 37.1655 0.70248 404.464
439 1 37.7992 1.41539 406.857 37.7992 1.41539 406.857
442 1 39.5104 1.43411 404.967 39.5104 1.43411 404.967
441 1 38.6541 3.63837 405.914 38.6541 3.63837 405.914
444 1 40.3658 3.65816 404.03 40.3658 3.65816 404.03
446 1 41.8579 2.16688 405.472 41.8579 2.16688 405.472
445 1 41.0032 4.37177 406.418 41.0032 4.37177 406.418
450 1 43.5686 2.18516 403.586 43.5686 2.18516 403.586
451 1 44.2054 2.90015 405.979 44.2054 2.90015 405.979
448 1 42.7169 4.39167 404.528 42.7169 4.39167 404.528
449 1 43.3505 0.677139 406.922 43.3505 0.677139 406.922
452 1 45.0617 0.695807 405.031 45.0617 0.695807 405.031
454 1 45.9171 2.91988 404.094 45.9171 2.91988 404.094
457 1 48.268 3.6534 404.592 48.268 3.6534 404.592
455 1 46.5545 3.63346 406.482 46.5545 3.63346 406.482
456 1 47.4091 1.42856 405.535 47.4091 1.42856 405.535
459 1 49.1196 1.44697 403.65 49.1196 1.44697 403.65
458 1 48.9017 4.36623 406.985 48.9017 4.36623 406.985
460 1 49.7565 2.1618 406.042 49.7565 2.1618 406.042
463 1 51.468 2.18162 404.158 51.468 2.18162 404.158
461 1 50.6127 4.38495 405.095 50.6127 4.38495 405.095
464 1 52.1055 2.89506 406.545 52.1055 2.89506 406.545
465 1 52.96 0.690201 405.598 52.96 0.690201 405.598
468 1 54.6701 0.708674 403.712 54.6701 0.708674 403.712
466 1 53.8187 2.91507 404.655 53.8187 2.91507 404.655
469 1 55.3074 1.42337 406.105 55.3074 1.42337 406.105
467 1 54.4527 3.62777 407.048 54.4527 3.62777 407.048
470 1 56.1633 3.64653 405.157 56.1633 3.64653 405.157
472 1 57.0184 1.44321 404.22 57.0184 1.44321 404.22
475 1 59.3692 2.17656 404.716 59.3692 2.17656 404.716
473 1 57.6564 2.15655 406.607 57.6564 2.15655 406.607
474 1 58.5107 4.37915 405.66 58.5107 4.37915 405.66
477 1 60.2203 4.3976 403.774 60.2203 4.3976 403.774
481 1 62.5687 0.704565 404.281 62.5687 0.704565 404.281
478 1 60.858 0.684775 406.166 60.858 0.684775 406.166
479 1 61.7138 2.90792 405.218 61.7138 2.90792 405.218
482 1 63.2071 1.41787 406.668 63.2071 1.41787 406.668
476 1 60.0036 2.88919 407.11 60.0036 2.88919 407.11
483 1 64.0612 3.64043 405.721 64.0612 3.64043 405.721
486 1 65.7704 3.65877 403.834 65.7704 3.65877 403.834
488 1 67.2642 2.169 405.278 67.2642 2.169 405.278
484 1 64.9195 1.43778 404.777 64.9195 1.43778 404.777
487 1 66.4087 4.3734 406.226 66.4087 4.3734 406.226
485 1 65.5544 2.15042 407.17 65.5544 2.15042 407.17
490 1 68.1189 4.39302 404.34 68.1189 4.39302 404.34
493 1 69.6118 2.90134 405.78 69.6118 2.90134 405.78
491 1 68.758 0.678918 406.727 68.758 0.678918 406.727
494 1 70.4701 0.698604 404.835 70.4701 0.698604 404.835
492 1 68.969 2.18371 403.385 68.969 2.18371 403.385
496 1 71.3204 2.91936 403.892 71.3204 2.91936 403.892
497 1 71.9598 3.63353 406.283 71.9598 3.63353 406.283
500 1 73.6699 3.65174 404.396 73.6699 3.65174 404.396
498 1 72.816 1.42863 405.334 72.816 1.42863 405.334
502 1 74.5226 1.44143 403.437 74.5226 1.44143 403.437
501 1 74.3065 4.36823 406.787 74.3065 4.36823 406.787
503 1 75.1603 2.16363 405.839 75.1603 2.16363 405.839
506 1 76.8659 2.18376 403.953 76.8659 2.18376 403.953
507 1 77.5083 2.90053 406.344 77.5083 2.90053 406.344
504 1 76.0145 4.38901 404.899 76.0145 4.38901 404.899
508 1 78.3623 0.697874 405.4 78.3623 0.697874 405.4
510 1 79.2188 2.92268 404.456 79.2188 2.92268 404.456
512 1 80.0706 0.716592 403.513 80.0706 0.716592 403.513
514 1 81.5666 3.65291 404.954 81.5666 3.65291 404.954
516 1 82.4218 1.44922 404.017 82.4218 1.44922 404.017
513 1 80.7116 1.43007 405.902 80.7116 1.43007 405.902
511 1 79.8572 3.63426 406.846 79.8572 3.63426 406.846
517 1 83.0623 2.16251 406.402 83.0623 2.16251 406.402
523 1 86.265 0.690315 405.958 86.265 0.690315 405.958
520 1 84.7743 2.1821 404.51 84.7743 2.1821 404.51
518 1 83.916 4.38479 405.454 83.916 4.38479 405.454
522 1 85.6248 4.40289 403.567 85.6248 4.40289 403.567
521 1 85.411 2.89486 406.902 85.411 2.89486 406.902
526 1 87.9751 0.709817 404.072 87.9751 0.709817 404.072
528 1 89.4694 3.64588 405.511 89.4694 3.64588 405.511
524 1 87.1205 2.91339 405.01 87.1205 2.91339 405.01
529 1 90.3276 1.44302 404.567 90.3276 1.44302 404.567
527 1 88.6154 1.42348 406.458 88.6154 1.42348 406.458
536 1 94.169 0.685018 406.515 94.169 0.685018 406.515
531 1 91.1786 3.66369 403.624 91.1786 3.66369 403.624
533 1 92.6739 2.17445 405.067 92.6739 2.17445 405.067
532 1 91.8183 4.37904 406.015 91.8183 4.37904 406.015
535 1 93.5289 4.39818 404.13 93.5289 4.39818 404.13
530 1 90.9641 2.15621 406.959 90.9641 2.15621 406.959
538 1 95.8815 0.704321 404.625 95.8815 0.704321 404.625
541 1 97.3719 3.64161 406.073 97.3719 3.64161 406.073
540 1 96.7322 2.92473 403.682 96.7322 2.92473 403.682
537 1 95.023 2.90729 405.568 95.023 2.90729 405.568
539 1 96.5178 1.41852 407.016 96.5178 1.41852 407.016
546 1 100.581 2.16965 405.622 100.581 2.16965 405.622
544 1 99.0815 3.66178 404.189 99.0815 3.66178 404.189
542 1 98.2276 1.43749 405.126 98.2276 1.43749 405.126
547 1 101.439 4.39422 404.679 101.439 4.39422 404.679
545 1 99.7248 4.37461 406.571 99.7248 4.37461 406.571
553 1 104.64 2.91846 404.235 104.64 2.91846 404.235
550 1 102.929 2.90041 406.124 102.929 2.90041 406.124
554 1 105.279 3.63382 406.623 105.279 3.63382 406.623
549 1 102.295 2.18743 403.731 102.295 2.18743 403.731
551 1 103.785 0.695561 405.176 103.785 0.695561 405.176
548 1 102.074 0.678067 407.069 102.074 0.678067 407.069
560 1 -60.0517 0.654083 409.517 -60.0517 0.654083 409.517
558 1 -61.5449 2.144 408.07 -61.5449 2.144 408.07
562 1 -59.1968 2.87799 408.57 -59.1968 2.87799 408.57
559 1 -60.9065 2.85788 410.462 -60.9065 2.85788 410.462
556 1 -62.4 4.34787 409.016 -62.4 4.34787 409.016
273 1 -58.3431 0.674829 407.625 -58.3431 0.674829 407.625
565 1 -56.8483 3.6106 409.072 -56.8483 3.6106 409.072
568 1 -55.3545 2.12001 410.52 -55.3545 2.12001 410.52
567 1 -55.9934 1.40623 408.128 -55.9934 1.40623 408.128
564 1 -57.7033 1.38719 410.018 -57.7033 1.38719 410.018
563 1 -58.558 3.59109 410.963 -58.558 3.59109 410.963
573 1 -52.149 0.647935 410.079 -52.149 0.647935 410.079
571 1 -53.643 2.13737 408.632 -53.643 2.13737 408.632
283 1 -52.7859 4.35839 407.688 -52.7859 4.35839 407.688
569 1 -54.4991 4.34267 409.575 -54.4991 4.34267 409.575
574 1 -51.2924 2.87033 409.137 -51.2924 2.87033 409.137
572 1 -53.0051 2.85295 411.023 -53.0051 2.85295 411.023
576 1 -50.4358 0.665013 408.193 -50.4358 0.665013 408.193
578 1 -48.9422 3.60389 409.64 -48.9422 3.60389 409.64
289 1 -49.5792 2.88848 407.25 -49.5792 2.88848 407.25
580 1 -48.0859 1.39931 408.696 -48.0859 1.39931 408.696
577 1 -49.7988 1.3811 410.583 -49.7988 1.3811 410.583
293 1 -47.2298 3.62269 407.752 -47.2298 3.62269 407.752
299 1 -44.0232 2.15071 407.308 -44.0232 2.15071 407.308
583 1 -45.7356 2.13239 409.197 -45.7356 2.13239 409.197
585 1 -44.8793 4.3554 408.254 -44.8793 4.3554 408.254
582 1 -46.5919 4.33693 410.142 -46.5919 4.33693 410.142
586 1 -44.2418 0.642073 410.643 -44.2418 0.642073 410.643
589 1 -42.5292 0.66038 408.755 -42.5292 0.66038 408.755
591 1 -41.0356 3.59739 410.201 -41.0356 3.59739 410.201
303 1 -41.6734 2.88297 407.81 -41.6734 2.88297 407.81
587 1 -43.3856 2.86487 409.699 -43.3856 2.86487 409.699
592 1 -40.1792 1.3928 409.257 -40.1792 1.3928 409.257
309 1 -38.4665 1.41078 407.368 -38.4665 1.41078 407.368