ITEM: TIMESTEP
0
ITEM: NUMBER OF ATOMS
4630
ITEM: BOX BOUNDS xy xz yz pp pp pp
-6.3133356038163534e+01 1.0615238788636354e+02 0.0000000000000000e+00
0.0000000000000000e+00 4.4274527100805940e+00 0.0000000000000000e+00
3.8000000000000000e+02 5.0000000000000000e+02 0.0000000000000000e+00
ITEM: ATOMS id type x y z xu yu zu
7 1 -58.9094 2.87404 398.926 -58.9094 2.87404 398.926
27 1 -45.4582 2.16612 399.465 -45.4582 2.16612 399.465
36 1 -39.8654 1.42422 399.522 -39.8654 1.42422 399.522
45 1 -34.2764 0.684584 399.584 -34.2764 0.684584 399.584
85 1 -8.70706 0.687013 399.41 -8.70706 0.687013 399.41
94 1 -3.11489 4.37304 399.472 -3.11489 4.37304 399.472
103 1 2.47238 3.63437 399.537 2.47238 3.63437 399.537
112 1 8.05808 2.89622 399.603 8.05808 2.89622 399.603
152 1 33.6068 2.90467 399.435 33.6068 2.90467 399.435
161 1 39.1953 2.16354 399.494 39.1953 2.16354 399.494
170 1 44.7795 1.42477 399.557 44.7795 1.42477 399.557
227 1 81.4936 4.38054 399.487 81.4936 4.38054 399.487
236 1 87.0833 3.63902 399.542 87.0833 3.63902 399.542
245 1 92.6691 2.89979 399.6 92.6691 2.89979 399.6
5 1 -59.8144 0.658071 399.724 -59.8144 0.658071 399.724
2 1 -61.5897 0.671517 401.514 -61.5897 0.671517 401.514
3 1 -60.731 2.88379 400.612 -60.731 2.88379 400.612
1 1 -62.4346 2.85469 402.46 106.851 2.85469 402.46
4 1 -60.0754 3.60464 402.95 -60.0754 3.60464 402.95
9 1 -57.4337 1.32755 400.186 -57.4337 1.32755 400.186
8 1 -58.3077 3.58386 401.146 -58.3077 3.58386 401.146
10 1 -56.8237 2.09417 402.545 -56.8237 2.09417 402.545
6 1 -59.201 1.39009 402.022 -59.201 1.39009 402.022
11 1 -55.9669 4.31734 401.624 -55.9669 4.31734 401.624
12 1 -55.107 2.14151 400.671 -55.107 2.14151 400.671
16 1 -52.7346 2.83671 401.132 -52.7346 2.83671 401.132
15 1 -53.6012 0.635079 402.119 -53.6012 0.635079 402.119
14 1 -54.2638 4.37113 399.832 -54.2638 4.37113 399.832
17 1 -51.8778 0.638167 400.273 -51.8778 0.638167 400.273
13 1 -54.4572 2.83827 403.025 -54.4572 2.83827 403.025
22 1 -48.6477 3.61106 399.874 -48.6477 3.61106 399.874
20 1 -49.5187 1.38966 400.723 -49.5187 1.38966 400.723
19 1 -50.3911 3.57974 401.656 -50.3911 3.57974 401.656
18 1 -51.2395 1.36296 402.603 -51.2395 1.36296 402.603
21 1 -48.8912 2.11038 403.097 -48.8912 2.11038 403.097
23 1 -48.0268 4.3335 402.181 -48.0268 4.3335 402.181
26 1 -45.6556 0.638588 402.65 -45.6556 0.638588 402.65
24 1 -47.1764 2.12004 401.243 -47.1764 2.12004 401.243
28 1 -44.7976 2.85855 401.747 -44.7976 2.85855 401.747
25 1 -46.3031 4.36433 400.306 -46.3031 4.36433 400.306
29 1 -43.9283 0.630662 400.761 -43.9283 0.630662 400.761
31 1 -43.0691 2.85934 399.904 -43.0691 2.85934 399.904
34 1 -40.7141 3.6227 400.361 -40.7141 3.6227 400.361
32 1 -42.4329 3.58863 402.234 -42.4329 3.58863 402.234
33 1 -41.5896 1.37987 401.296 -41.5896 1.37987 401.296
30 1 -43.302 1.36644 403.153 -43.302 1.36644 403.153
35 1 -40.0669 4.32632 402.707 -40.0669 4.32632 402.707
40 1 -37.4786 2.11892 399.964 -37.4786 2.11892 399.964
37 1 -39.2098 2.11847 401.805 -39.2098 2.11847 401.805
41 1 -36.8447 2.84879 402.295 -36.8447 2.84879 402.295
38 1 -38.3387 4.31744 400.82 -38.3387 4.31744 400.82
39 1 -37.7141 0.626974 403.213 -37.7141 0.626974 403.213
43 1 -35.1248 2.88304 400.422 -35.1248 2.88304 400.422
42 1 -36.0006 0.639992 401.357 -36.0006 0.639992 401.357
44 1 -34.4787 3.58662 402.769 -34.4787 3.58662 402.769
46 1 -33.6212 1.37879 401.867 -33.6212 1.37879 401.867
47 1 -32.7499 3.57788 400.882 -32.7499 3.57788 400.882
49 1 -31.8898 1.37935 400.026 -31.8898 1.37935 400.026
52 1 -29.5363 2.14352 400.485 -29.5363 2.14352 400.485
50 1 -31.2565 2.1092 402.357 -31.2565 2.1092 402.357
51 1 -30.4122 4.32791 401.42 -30.4122 4.32791 401.42
53 1 -28.8906 2.84698 402.832 -28.8906 2.84698 402.832
54 1 -28.6881 4.3725 399.646 -28.6881 4.3725 399.646
48 1 -32.126 4.31483 403.275 -32.126 4.31483 403.275
58 1 -26.3017 0.639706 400.089 -26.3017 0.639706 400.089
59 1 -25.6687 1.3695 402.421 -25.6687 1.3695 402.421
56 1 -27.1617 2.83827 400.945 -27.1617 2.83827 400.945
55 1 -28.0331 0.639144 401.93 -28.0331 0.639144 401.93
60 1 -24.8243 3.58824 401.483 -24.8243 3.58824 401.483
57 1 -26.5382 3.57516 403.338 -26.5382 3.57516 403.338
61 1 -23.9485 1.40384 400.548 -23.9485 1.40384 400.548
63 1 -23.1004 3.6328 399.71 -23.1004 3.6328 399.71
62 1 -23.303 2.10713 402.895 -23.303 2.10713 402.895
64 1 -22.4454 4.32672 401.994 -22.4454 4.32672 401.994
65 1 -21.5742 2.09833 401.009 -21.5742 2.09833 401.009
66 1 -20.9508 2.83516 403.402 -20.9508 2.83516 403.402
70 1 -18.3613 0.663541 400.611 -18.3613 0.663541 400.611
68 1 -20.0811 0.62946 402.484 -20.0811 0.62946 402.484
69 1 -19.2373 2.84797 401.547 -19.2373 2.84797 401.547
67 1 -20.7141 4.3272 400.153 -20.7141 4.3272 400.153
72 1 -17.515 2.89218 399.772 -17.515 2.89218 399.772
71 1 -17.7151 1.36695 402.958 -17.7151 1.36695 402.958
75 1 -15.1296 3.5873 400.214 -15.1296 3.5873 400.214
74 1 -15.987 1.35857 401.071 -15.987 1.35857 401.071
73 1 -16.8588 3.58629 402.056 -16.8588 3.58629 402.056
76 1 -14.4933 4.31263 402.542 -14.4933 4.31263 402.542
77 1 -13.6428 2.10131 401.596 -13.6428 2.10131 401.596
348 1 -15.3604 2.09262 403.46 -15.3604 2.09262 403.46
80 1 -11.8972 2.13222 399.816 -11.8972 2.13222 399.816
81 1 -11.2781 2.85484 402.123 -11.2781 2.85484 402.123
78 1 -12.7697 4.33831 400.665 -12.7697 4.33831 400.665
79 1 -12.1437 0.632074 403.038 -12.1437 0.632074 403.038
83 1 -9.55268 2.88524 400.251 -9.55268 2.88524 400.251
82 1 -10.427 0.641036 401.187 -10.427 0.641036 401.187
87 1 -7.17802 3.57914 400.708 -7.17802 3.57914 400.708
84 1 -8.9069 3.5873 402.595 -8.9069 3.5873 402.595
86 1 -8.04821 1.37964 401.693 -8.04821 1.37964 401.693
89 1 -6.31828 1.38036 399.851 -6.31828 1.38036 399.851
90 1 -5.6838 2.10984 402.182 -5.6838 2.10984 402.182
88 1 -6.55345 4.31516 403.1 -6.55345 4.31516 403.1
92 1 -3.96381 2.14404 400.31 -3.96381 2.14404 400.31
93 1 -3.31822 2.84766 402.657 -3.31822 2.84766 402.657
91 1 -4.83983 4.32858 401.245 -4.83983 4.32858 401.245
96 1 -1.589 2.83898 400.771 -1.589 2.83898 400.771
95 1 -2.46061 0.639874 401.755 -2.46061 0.639874 401.755
98 1 -0.728599 0.640496 399.915 -0.728599 0.640496 399.915
100 1 0.748125 3.58947 401.31 0.748125 3.58947 401.31
99 1 -0.0964153 1.37056 402.247 -0.0964153 1.37056 402.247
97 1 -0.966106 3.57607 403.164 -0.966106 3.57607 403.164
101 1 1.62419 1.40532 400.375 1.62419 1.40532 400.375
102 1 2.26884 2.10866 402.722 2.26884 2.10866 402.722
105 1 3.99816 2.10046 400.837 3.99816 2.10046 400.837
104 1 3.1265 4.32849 401.821 3.1265 4.32849 401.821
108 1 5.49001 0.632029 402.313 5.49001 0.632029 402.313
107 1 4.85828 4.32944 399.981 4.85828 4.32944 399.981
106 1 4.62039 2.83738 403.23 4.62039 2.83738 403.23
110 1 7.21035 0.66716 400.441 7.21035 0.66716 400.441
111 1 7.85477 1.37019 402.789 7.85477 1.37019 402.789
109 1 6.33449 2.85117 401.376 6.33449 2.85117 401.376
113 1 8.71227 3.59013 401.887 8.71227 3.59013 401.887
114 1 9.58381 1.36227 400.903 9.58381 1.36227 400.903
116 1 10.4437 3.59126 400.047 10.4437 3.59126 400.047
118 1 11.9196 2.11305 401.443 11.9196 2.11305 401.443
117 1 11.0752 4.32122 402.379 11.0752 4.32122 402.379
121 1 13.6424 2.15817 399.669 13.6424 2.15817 399.669
120 1 13.4396 0.631872 402.855 13.4396 0.631872 402.855
119 1 12.7952 4.35658 400.507 12.7952 4.35658 400.507
115 1 10.2058 2.09902 403.297 10.2058 2.09902 403.297
122 1 14.2969 2.85187 401.954 14.2969 2.85187 401.954
123 1 15.1682 0.624134 400.969 15.1682 0.624134 400.969
125 1 16.0278 2.85309 400.113 16.0278 2.85309 400.113
126 1 16.6594 3.58296 402.446 16.6594 3.58296 402.446
127 1 17.5035 1.37488 401.509 17.5035 1.37488 401.509
124 1 15.7903 1.36071 403.364 15.7903 1.36071 403.364
130 1 19.2256 1.42 399.734 19.2256 1.42 399.734
128 1 18.3788 3.61843 400.573 18.3788 3.61843 400.573
129 1 19.0235 4.32087 402.921 19.0235 4.32087 402.921
131 1 19.8806 2.11342 402.02 19.8806 2.11342 402.02
132 1 20.7515 4.31312 401.035 20.7515 4.31312 401.035
133 1 21.3738 0.622081 403.429 21.3738 0.622081 403.429
134 1 21.6109 2.11459 400.178 21.6109 2.11459 400.178
136 1 23.0863 0.636013 401.574 23.0863 0.636013 401.574
135 1 22.2429 2.8443 402.511 22.2429 2.8443 402.511
139 1 24.8062 0.680754 399.798 24.8062 0.680754 399.798
137 1 23.9616 2.87953 400.638 23.9616 2.87953 400.638
138 1 24.6073 3.58198 402.986 24.6073 3.58198 402.986
141 1 26.3342 3.57465 401.098 26.3342 3.57465 401.098
140 1 25.4629 1.37428 402.083 25.4629 1.37428 402.083
142 1 27.1907 1.37597 400.24 27.1907 1.37597 400.24
143 1 27.8266 2.10109 402.57 27.8266 2.10109 402.57
144 1 28.6764 4.31781 401.624 28.6764 4.31781 401.624
145 1 29.5487 2.12771 400.691 29.5487 2.12771 400.691
147 1 30.4194 4.34902 399.842 30.4194 4.34902 399.842
146 1 30.1746 2.84829 403.066 30.1746 2.84829 403.066
150 1 32.7627 0.675439 400.277 32.7627 0.675439 400.277
148 1 31.0393 0.644078 402.15 31.0393 0.644078 402.15
149 1 31.8895 2.85839 401.214 31.8895 2.85839 401.214
153 1 34.2669 3.59668 401.719 34.2669 3.59668 401.719
151 1 33.4091 1.37653 402.621 33.4091 1.37653 402.621
156 1 35.995 3.59785 399.876 35.995 3.59785 399.876
154 1 35.1362 1.36918 400.733 35.1362 1.36918 400.733
157 1 36.6299 4.32707 402.207 36.6299 4.32707 402.207
155 1 35.7612 2.10459 403.126 35.7612 2.10459 403.126
158 1 37.473 2.11879 401.269 37.473 2.11879 401.269
159 1 38.3481 4.362 400.333 38.3481 4.362 400.333
162 1 39.8511 2.85717 401.779 39.8511 2.85717 401.779
160 1 38.9944 0.637239 402.681 38.9944 0.637239 402.681
163 1 40.7218 0.629245 400.794 40.7218 0.629245 400.794
165 1 41.5812 2.85819 399.937 41.5812 2.85819 399.937
164 1 41.3455 1.36567 403.187 41.3455 1.36567 403.187
168 1 43.9329 3.62321 400.396 43.9329 3.62321 400.396
167 1 43.0578 1.37971 401.332 43.0578 1.37971 401.332
166 1 42.2142 3.5879 402.269 42.2142 3.5879 402.269
169 1 44.5787 4.3257 402.743 44.5787 4.3257 402.743
171 1 45.4354 2.11827 401.841 45.4354 2.11827 401.841
174 1 47.1652 2.11952 399.999 47.1652 2.11952 399.999
175 1 47.7982 2.84915 402.331 47.7982 2.84915 402.331
172 1 46.3061 4.31801 400.856 46.3061 4.31801 400.856
173 1 46.9296 0.626838 403.25 46.9296 0.626838 403.25
177 1 49.5166 2.88464 400.458 49.5166 2.88464 400.458
176 1 48.6418 0.64108 401.394 48.6418 0.64108 401.394
179 1 50.3629 0.686205 399.618 50.3629 0.686205 399.618
181 1 51.8896 3.5794 400.918 51.8896 3.5794 400.918
178 1 50.1625 3.58696 402.806 50.1625 3.58696 402.806
180 1 51.0191 1.37959 401.903 51.0191 1.37959 401.903
183 1 52.7486 1.3809 400.061 52.7486 1.3809 400.061
184 1 53.3817 2.11047 402.393 53.3817 2.11047 402.393
186 1 55.0999 2.14603 400.519 55.0999 2.14603 400.519
187 1 55.746 2.84824 402.867 55.746 2.84824 402.867
188 1 55.9459 4.37504 399.68 55.9459 4.37504 399.68
185 1 54.2252 4.3299 401.456 54.2252 4.3299 401.456
182 1 52.5133 4.31557 403.312 52.5133 4.31557 403.312
189 1 56.6024 0.640894 401.964 56.6024 0.640894 401.964
192 1 58.3316 0.642226 400.122 58.3316 0.642226 400.122
194 1 59.8083 3.59119 401.517 59.8083 3.59119 401.517
193 1 58.965 1.37175 402.454 58.965 1.37175 402.454
190 1 57.4728 2.84073 400.979 57.4728 2.84073 400.979
191 1 58.0967 3.57684 403.373 58.0967 3.57684 403.373
195 1 60.6828 1.40732 400.58 60.6828 1.40732 400.58
197 1 61.5287 3.63631 399.741 61.5287 3.63631 399.741
199 1 63.0557 2.10194 401.04 63.0557 2.10194 401.04
196 1 61.3293 2.10946 402.928 61.3293 2.10946 402.928
198 1 62.1855 4.32955 402.025 62.1855 4.32955 402.025
200 1 63.6799 2.83801 403.434 63.6799 2.83801 403.434
202 1 64.548 0.632893 402.515 64.548 0.632893 402.515
201 1 63.9143 4.33086 400.182 63.9143 4.33086 400.182
206 1 67.1111 2.8974 399.801 67.1111 2.8974 399.801
204 1 66.2654 0.66841 400.64 66.2654 0.66841 400.64
203 1 65.3912 2.85233 401.577 65.3912 2.85233 401.577
205 1 66.9123 1.37047 402.988 66.9123 1.37047 402.988
207 1 67.7684 3.59051 402.085 67.7684 3.59051 402.085
209 1 69.4968 3.59169 400.242 69.4968 3.59169 400.242
208 1 68.6383 1.36279 401.099 68.6383 1.36279 401.099
211 1 70.9736 2.1128 401.636 70.9736 2.1128 401.636
210 1 70.1312 4.3211 402.574 70.1312 4.3211 402.574
212 1 71.848 4.35625 400.699 71.848 4.35625 400.699
214 1 72.6919 2.15745 399.858 72.6919 2.15745 399.858
217 1 75.0769 2.85247 400.298 75.0769 2.85247 400.298
216 1 74.2212 0.623716 401.157 74.2212 0.623716 401.157
215 1 73.3507 2.85084 402.143 73.3507 2.85084 402.143
213 1 72.496 0.631092 403.046 72.496 0.631092 403.046
218 1 75.7151 3.57742 402.627 75.7151 3.57742 402.627
220 1 77.4356 3.6039 400.747 77.4356 3.6039 400.747
219 1 76.5641 1.36662 401.68 76.5641 1.36662 401.68
222 1 78.3058 1.39776 399.897 78.3058 1.39776 399.897
223 1 78.9278 2.12017 402.204 78.9278 2.12017 402.204
221 1 78.0637 4.32444 403.121 78.0637 4.32444 403.121
224 1 79.7773 4.33435 401.267 79.7773 4.33435 401.267
225 1 80.6498 2.15131 400.329 80.6498 2.15131 400.329
229 1 83.0241 2.84499 400.783 83.0241 2.84499 400.783
228 1 82.1554 0.645172 401.77 82.1554 0.645172 401.77
226 1 81.2983 2.85254 402.673 81.2983 2.85254 402.673
231 1 83.8824 0.646208 399.925 83.8824 0.646208 399.925
234 1 86.2363 1.41005 400.381 86.2363 1.41005 400.381
233 1 85.3618 3.59443 401.318 85.3618 3.59443 401.318
235 1 86.8845 2.11301 402.728 86.8845 2.11301 402.728
232 1 84.5193 1.37541 402.256 84.5193 1.37541 402.256
230 1 83.6511 3.58048 403.175 83.6511 3.58048 403.175
241 1 90.1046 0.635926 402.314 90.1046 0.635926 402.314
238 1 88.6108 2.1047 400.84 88.6108 2.1047 400.84
240 1 89.4698 4.33362 399.983 89.4698 4.33362 399.983
237 1 87.7407 4.33282 401.825 87.7407 4.33282 401.825
239 1 89.2364 2.84134 403.232 89.2364 2.84134 403.232
242 1 90.9478 2.85495 401.376 90.9478 2.85495 401.376
243 1 91.8223 0.670783 400.44 91.8223 0.670783 400.44
247 1 94.1961 1.36521 400.898 94.1961 1.36521 400.898
246 1 93.3261 3.59338 401.884 93.3261 3.59338 401.884
244 1 92.4698 1.37364 402.787 92.4698 1.37364 402.787
254 1 98.2519 2.15813 399.66 98.2519 2.15813 399.66
249 1 95.0553 3.59406 400.042 95.0553 3.59406 400.042
253 1 98.055 0.634268 402.846 98.055 0.634268 402.846
251 1 96.5322 2.1149 401.436 96.5322 2.1149 401.436
252 1 97.4075 4.35754 400.5 97.4075 4.35754 400.5
250 1 95.6896 4.32386 402.373 95.6896 4.32386 402.373
248 1 94.8213 2.10211 403.292 94.8213 2.10211 403.292
258 1 100.636 2.85014 400.102 100.636 2.85014 400.102
255 1 98.9099 2.853 401.944 98.9099 2.853 401.944
259 1 101.27 3.58944 402.438 101.27 3.58944 402.438
260 1 102.112 1.38361 401.509 102.112 1.38361 401.509
256 1 99.7817 0.623888 400.959 99.7817 0.623888 400.959
257 1 100.405 1.36701 403.355 100.405 1.36701 403.355
263 1 103.815 1.42164 399.748 103.815 1.42164 399.748
261 1 102.97 3.62849 400.569 102.97 3.62849 400.569
264 1 104.516 2.11535 401.982 104.516 2.11535 401.982
265 1 105.359 4.31187 401.02 105.359 4.31187 401.02
262 1 103.645 4.32532 402.899 103.645 4.32532 402.899
266 1 105.999 0.624027 403.404 105.999 0.624027 403.404
268 1 -61.7845 3.57522 404.838 -61.7845 3.57522 404.838
271 1 -60.2855 2.09058 406.284 -60.2855 2.09058 406.284
270 1 -60.9287 1.37494 403.89 -60.9287 1.37494 403.89
267 1 -62.6426 1.35229 405.784 -62.6426 1.35229 405.784
272 1 -59.4294 4.3147 405.343 -59.4294 4.3147 405.343
269 1 -61.1447 4.29479 407.228 -61.1447 4.29479 407.228
277 1 -57.0618 0.618008 405.85 -57.0618 0.618008 405.85
274 1 -58.5683 2.10894 404.401 -58.5683 2.10894 404.401
278 1 -56.1935 2.83264 404.909 -56.1935 2.83264 404.909
275 1 -57.9234 2.82529 406.786 -57.9234 2.82529 406.786
276 1 -57.7019 4.32279 403.482 -57.7019 4.32279 403.482
279 1 -55.5583 3.55508 407.29 -55.5583 3.55508 407.29
280 1 -55.3278 0.620114 403.979 -55.3278 0.620114 403.979
286 1 -52.1055 3.56888 403.523 -52.1055 3.56888 403.523
282 1 -53.8284 3.56173 405.412 -53.8284 3.56173 405.412
284 1 -52.9642 1.35429 404.48 -52.9642 1.35429 404.48
281 1 -54.6942 1.34533 406.355 -54.6942 1.34533 406.355
285 1 -52.3306 2.07887 406.859 -52.3306 2.07887 406.859
291 1 -49.1072 0.609247 406.419 -49.1072 0.609247 406.419
288 1 -50.6066 2.09329 404.979 -50.6066 2.09329 404.979
292 1 -48.2462 2.83184 405.479 -48.2462 2.83184 405.479
287 1 -51.4687 4.29772 405.916 -51.4687 4.29772 405.916
290 1 -49.7493 4.31284 404.036 -49.7493 4.31284 404.036
294 1 -47.3831 0.62698 404.54 -47.3831 0.62698 404.54
297 1 -45.8835 3.56568 405.982 -45.8835 3.56568 405.982
296 1 -46.5248 2.84558 403.601 -46.5248 2.84558 403.601
298 1 -45.0215 1.35853 405.038 -45.0215 1.35853 405.038
295 1 -46.7446 1.34503 406.921 -46.7446 1.34503 406.921
300 1 -44.1591 3.57956 404.106 -44.1591 3.57956 404.106
306 1 -40.9362 2.10422 403.659 -40.9362 2.10422 403.659
302 1 -42.6582 2.0914 405.538 -42.6582 2.0914 405.538
304 1 -41.793 4.31363 404.599 -41.793 4.31363 404.599
301 1 -43.5189 4.29949 406.481 -43.5189 4.29949 406.481
305 1 -41.1563 0.605468 406.981 -41.1563 0.605468 406.981
307 1 -40.2956 2.8256 406.041 -40.2956 2.8256 406.041
310 1 -38.5717 2.84002 404.165 -38.5717 2.84002 404.165
312 1 -37.0707 1.35215 405.599 -37.0707 1.35215 405.599
311 1 -37.9314 3.56003 406.542 -37.9314 3.56003 406.542
308 1 -39.4332 0.618701 405.097 -39.4332 0.618701 405.097
313 1 -36.2055 3.57427 404.66 -36.2055 3.57427 404.66
315 1 -35.3482 1.36471 403.72 -35.3482 1.36471 403.72
316 1 -34.7082 2.08633 406.103 -34.7082 2.08633 406.103
317 1 -33.8456 4.30672 405.159 -33.8456 4.30672 405.159
314 1 -35.5691 4.2937 407.042 -35.5691 4.2937 407.042
319 1 -32.9838 2.10048 404.227 -32.9838 2.10048 404.227
320 1 -32.344 2.82066 406.604 -32.344 2.82066 406.604
324 1 -29.7603 0.625108 403.783 -29.7603 0.625108 403.783
321 1 -31.4831 0.612663 405.661 -31.4831 0.612663 405.661
322 1 -30.6177 2.8347 404.722 -30.6177 2.8347 404.722
323 1 -29.9816 3.55425 407.105 -29.9816 3.55425 407.105
325 1 -29.1206 1.34679 406.166 -29.1206 1.34679 406.166
328 1 -27.396 1.36082 404.29 -27.396 1.36082 404.29
326 1 -28.2579 3.56711 405.222 -28.2579 3.56711 405.222
329 1 -26.7565 2.08106 406.667 -26.7565 2.08106 406.667
330 1 -25.8955 4.30045 405.724 -25.8955 4.30045 405.724
331 1 -25.0301 2.09497 404.786 -25.0301 2.09497 404.786
337 1 -21.8084 0.620928 404.354 -21.8084 0.620928 404.354
334 1 -23.533 0.607036 406.229 -23.533 0.607036 406.229
335 1 -22.6704 2.82728 405.286 -22.6704 2.82728 405.286
333 1 -24.1726 4.31279 403.847 -24.1726 4.31279 403.847
338 1 -21.1689 1.34118 406.731 -21.1689 1.34118 406.731
332 1 -24.3942 2.81456 407.168 -24.3942 2.81456 407.168
340 1 -19.4424 1.35493 404.849 -19.4424 1.35493 404.849
342 1 -18.5853 3.57259 403.91 -18.5853 3.57259 403.91
339 1 -20.308 3.56046 405.788 -20.308 3.56046 405.788
344 1 -17.082 2.08623 405.348 -17.082 2.08623 405.348
343 1 -17.9456 4.29384 406.292 -17.9456 4.29384 406.292
341 1 -18.8066 2.07425 407.232 -18.8066 2.07425 407.232
347 1 -15.5842 0.601817 406.797 -15.5842 0.601817 406.797
349 1 -14.7232 2.82142 405.854 -14.7232 2.82142 405.854
346 1 -16.2207 4.30661 404.415 -16.2207 4.30661 404.415
350 1 -13.8612 0.616381 404.918 -13.8612 0.616381 404.918
351 1 -13.2227 1.33848 407.301 -13.2227 1.33848 407.301
353 1 -12.3613 3.55942 406.36 -12.3613 3.55942 406.36
352 1 -13.0028 2.83519 403.977 -13.0028 2.83519 403.977
354 1 -11.4999 1.3541 405.421 -11.4999 1.3541 405.421
356 1 -10.6359 3.57628 404.483 -10.6359 3.57628 404.483
358 1 -9.77693 1.36705 403.545 -9.77693 1.36705 403.545
357 1 -9.99844 4.29465 406.864 -9.99844 4.29465 406.864
363 1 -6.7722 2.82116 406.428 -6.7722 2.82116 406.428
359 1 -9.13682 2.08754 405.926 -9.13682 2.08754 405.926
362 1 -7.41123 2.10096 404.052 -7.41123 2.10096 404.052
360 1 -8.27417 4.30759 404.983 -8.27417 4.30759 404.983
364 1 -5.91102 0.612916 405.485 -5.91102 0.612916 405.485
368 1 -4.18795 0.62557 403.608 -4.18795 0.62557 403.608
366 1 -5.04526 2.83502 404.547 -5.04526 2.83502 404.547
369 1 -3.5487 1.34713 405.991 -3.5487 1.34713 405.991
367 1 -4.40988 3.55453 406.93 -4.40988 3.55453 406.93
370 1 -2.68589 3.56766 405.048 -2.68589 3.56766 405.048
372 1 -1.82401 1.36155 404.116 -1.82401 1.36155 404.116
376 1 0.541474 2.09604 404.612 0.541474 2.09604 404.612
373 1 -1.18503 2.08169 406.494 -1.18503 2.08169 406.494
374 1 -0.324006 4.3013 405.551 -0.324006 4.3013 405.551
379 1 2.03779 0.608286 406.057 2.03779 0.608286 406.057
378 1 1.39903 4.31408 403.674 1.39903 4.31408 403.674
377 1 1.17665 2.81556 406.996 1.17665 2.81556 406.996
383 1 4.40111 1.34294 406.56 4.40111 1.34294 406.56
380 1 2.90055 2.82881 405.114 2.90055 2.82881 405.114
382 1 3.76252 0.62274 404.182 3.76252 0.62274 404.182
384 1 5.26211 3.56259 405.617 5.26211 3.56259 405.617
385 1 6.12757 1.35739 404.679 6.12757 1.35739 404.679
387 1 6.98507 3.57553 403.74 6.98507 3.57553 403.74
388 1 7.62357 4.29713 406.124 7.62357 4.29713 406.124
386 1 6.76248 2.0769 407.063 6.76248 2.0769 407.063
389 1 8.48624 2.09025 405.181 8.48624 2.09025 405.181
391 1 9.3481 4.31171 404.249 9.3481 4.31171 404.249
392 1 9.98655 0.604393 406.627 9.98655 0.604393 406.627
393 1 10.8474 2.82411 405.684 10.8474 2.82411 405.684
394 1 11.7127 0.618963 404.746 11.7127 0.618963 404.746
396 1 12.5701 2.83717 403.807 12.5701 2.83717 403.807
397 1 13.2086 3.55867 406.191 13.2086 3.55867 406.191
395 1 12.3476 1.3384 407.13 12.3476 1.3384 407.13
398 1 14.0711 1.35183 405.247 14.0711 1.35183 405.247
400 1 14.9327 3.57333 404.315 14.9327 3.57333 404.315
401 1 15.5713 4.29338 406.694 15.5713 4.29338 406.694
402 1 16.432 2.08567 405.751 16.432 2.08567 405.751
403 1 17.2971 4.30799 404.812 17.2971 4.30799 404.812
405 1 18.1543 2.09876 403.873 18.1543 2.09876 403.873
406 1 18.7929 2.82016 406.257 18.7929 2.82016 406.257
409 1 20.5168 2.83477 404.381 20.5168 2.83477 404.381
410 1 21.1556 3.55471 406.76 21.1556 3.55471 406.76
407 1 19.6552 0.613285 405.314 19.6552 0.613285 405.314
404 1 17.9321 0.599888 407.196 17.9321 0.599888 407.196
412 1 22.8812 3.56922 404.877 22.8812 3.56922 404.877
411 1 22.016 1.34693 405.816 22.016 1.34693 405.816
415 1 24.377 2.08067 406.322 24.377 2.08067 406.322
414 1 23.7378 1.35985 403.938 23.7378 1.35985 403.938
416 1 25.24 4.30086 405.377 25.24 4.30086 405.377
413 1 23.5165 4.28818 407.261 23.5165 4.28818 407.261
418 1 26.1007 2.09416 404.444 26.1007 2.09416 404.444
419 1 26.7369 2.81646 406.827 26.7369 2.81646 406.827
420 1 26.9603 4.30812 403.489 26.9603 4.30812 403.489
421 1 27.5973 0.609005 405.883 27.5973 0.609005 405.883
422 1 28.4585 2.8318 404.947 28.4585 2.8318 404.947
424 1 29.3163 0.623609 404.005 29.3163 0.623609 404.005
426 1 30.8186 3.56971 405.449 30.8186 3.56971 405.449
425 1 29.9579 1.34725 406.389 29.9579 1.34725 406.389
430 1 32.54 3.58342 403.572 32.54 3.58342 403.572
428 1 31.6818 1.36478 404.511 31.6818 1.36478 404.511
429 1 32.3195 2.08259 406.893 32.3195 2.08259 406.893
432 1 34.0422 2.09622 405.01 34.0422 2.09622 405.01
431 1 33.1804 4.30328 405.954 33.1804 4.30328 405.954
435 1 35.5438 0.609521 406.455 35.5438 0.609521 406.455
436 1 36.4042 2.82909 405.512 36.4042 2.82909 405.512
434 1 34.9043 4.3174 404.078 34.9043 4.3174 404.078
440 1 38.1256 2.84239 403.633 38.1256 2.84239 403.633
438 1 37.2691 0.624059 404.573 37.2691 0.624059 404.573
439 1 37.9051 1.34291 406.956 37.9051 1.34291 406.956
442 1 39.6275 1.35663 405.073 39.6275 1.35663 405.073
441 1 38.7655 3.56328 406.017 38.7655 3.56328 406.017
444 1 40.4885 3.57825 404.14 40.4885 3.57825 404.14
446 1 41.9885 2.09019 405.574 41.9885 2.09019 405.574
445 1 41.1283 4.29773 406.518 41.1283 4.29773 406.518
450 1 43.7098 2.10349 403.696 43.7098 2.10349 403.696
451 1 44.3496 2.82446 406.079 44.3496 2.82446 406.079
448 1 42.8531 4.31264 404.635 42.8531 4.31264 404.635
449 1 43.4893 0.604006 407.019 43.4893 0.604006 407.019
452 1 45.2115 0.61776 405.135 45.2115 0.61776 405.135
454 1 46.0726 2.83937 404.202 46.0726 2.83937 404.202
457 1 48.4371 3.57381 404.698 48.4371 3.57381 404.698
455 1 46.7124 3.55889 406.58 46.7124 3.55889 406.58
456 1 47.5726 1.35134 405.637 47.5726 1.35134 405.637
459 1 49.2938 1.36471 403.758 49.2938 1.36471 403.758
458 1 49.0734 4.29262 407.081 49.0734 4.29262 407.081
460 1 49.9336 2.08563 406.141 49.9336 2.08563 406.141
463 1 51.6564 2.1006 404.264 51.6564 2.1006 404.264
461 1 50.7955 4.30641 405.197 50.7955 4.30641 405.197
464 1 52.2963 2.82008 406.642 52.2963 2.82008 406.642
465 1 53.1564 0.612552 405.699 53.1564 0.612552 405.699
468 1 54.8774 0.625978 403.82 54.8774 0.625978 403.82
466 1 54.0209 2.83505 404.759 54.0209 2.83505 404.759
469 1 55.5174 1.34685 406.203 55.5174 1.34685 406.203
467 1 54.6573 3.55382 407.143 54.6573 3.55382 407.143
470 1 56.3791 3.56764 405.259 56.3791 3.56764 405.259
472 1 57.24 1.36185 404.326 57.24 1.36185 404.326
475 1 59.6044 2.09628 404.82 59.6044 2.09628 404.82
473 1 57.8801 2.0813 406.704 57.8801 2.0813 406.704
474 1 58.7401 4.30123 405.76 58.7401 4.30123 405.76
477 1 60.4608 4.31466 403.881 60.4608 4.31466 403.881
481 1 62.8234 0.623037 404.387 62.8234 0.623037 404.387
478 1 61.1011 0.608066 406.264 61.1011 0.608066 406.264
479 1 61.9627 2.82885 405.32 61.9627 2.82885 405.32
482 1 63.4638 1.3425 406.764 63.4638 1.3425 406.764
476 1 60.2411 2.81505 407.204 60.2411 2.81505 407.204
483 1 64.3237 3.5624 405.821 64.3237 3.5624 405.821
486 1 66.0441 3.57575 403.941 66.0441 3.57575 403.941
488 1 67.5462 2.08989 405.379 67.5462 2.08989 405.379
484 1 65.1878 1.35741 404.881 65.1878 1.35741 404.881
487 1 66.6848 4.29663 406.324 66.6848 4.29663 406.324
485 1 65.8248 2.07621 407.264 65.8248 2.07621 407.264
490 1 68.4068 4.31147 404.446 68.4068 4.31147 404.446
493 1 69.9073 2.8233 405.88 69.9073 2.8233 405.88
491 1 69.0477 0.603505 406.824 69.0477 0.603505 406.824
494 1 70.7716 0.618227 404.94 70.7716 0.618227 404.94
492 1 69.263 2.09885 403.493 69.263 2.09885 403.493
496 1 71.6273 2.83638 403.999 71.6273 2.83638 403.999
497 1 72.2687 3.55685 406.382 72.2687 3.55685 406.382
500 1 73.9908 3.57048 404.503 73.9908 3.57048 404.503
498 1 73.1309 1.34968 405.437 73.1309 1.34968 405.437
502 1 74.8496 1.35701 403.546 74.8496 1.35701 403.546
501 1 74.6291 4.29249 406.885 74.6291 4.29249 406.885
503 1 75.4888 2.08511 405.94 75.4888 2.08511 405.94
506 1 77.2062 2.09977 404.06 77.2062 2.09977 404.06
507 1 77.8499 2.82327 406.444 77.8499 2.82327 406.444
504 1 76.3492 4.30796 405.003 76.3492 4.30796 405.003
508 1 78.7098 0.618324 405.503 78.7098 0.618324 405.503
510 1 79.5723 2.84086 404.564 79.5723 2.84086 404.564
512 1 80.4298 0.632009 403.624 80.4298 0.632009 403.624
514 1 81.9335 3.57224 405.061 81.9335 3.57224 405.061
516 1 82.7949 1.36593 404.129 82.7949 1.36593 404.129
513 1 81.0723 1.35186 406.006 81.0723 1.35186 406.006
511 1 80.2121 3.5586 406.946 80.2121 3.5586 406.946
517 1 83.4364 2.08558 406.505 83.4364 2.08558 406.505
523 1 86.6582 0.611915 406.063 86.6582 0.611915 406.063
520 1 85.1604 2.10001 404.621 85.1604 2.10001 404.621
518 1 84.2961 4.3051 405.561 84.2961 4.3051 405.561
522 1 86.0163 4.31824 403.681 86.0163 4.31824 403.681
521 1 85.7984 2.81906 407.004 85.7984 2.81906 407.004
526 1 88.38 0.626667 404.186 88.38 0.626667 404.186
528 1 89.8814 3.56629 405.619 89.8814 3.56629 405.619
524 1 87.5196 2.83263 405.119 87.5196 2.83263 405.119
529 1 90.7454 1.36109 404.679 90.7454 1.36109 404.679
527 1 89.0218 1.34654 406.563 89.0218 1.34654 406.563
536 1 94.6072 0.60842 406.621 94.6072 0.60842 406.621
531 1 91.6015 3.57916 403.739 91.6015 3.57916 403.739
533 1 93.1046 2.09389 405.177 93.1046 2.09389 405.177
532 1 92.2434 4.30085 406.122 92.2434 4.30085 406.122
535 1 93.9651 4.31516 404.245 93.9651 4.31516 404.245
530 1 91.3836 2.08059 407.062 91.3836 2.08059 407.062
538 1 96.3308 0.622607 404.738 96.3308 0.622607 404.738
541 1 97.8288 3.56398 406.181 97.8288 3.56398 406.181
540 1 97.1864 2.84029 403.799 97.1864 2.84029 403.799
537 1 95.4667 2.82801 405.678 95.4667 2.82801 405.678
539 1 96.9694 1.34347 407.121 96.9694 1.34347 407.121
546 1 101.057 2.09164 405.732 101.057 2.09164 405.732
544 1 99.5493 3.57912 404.306 99.5493 3.57912 404.306
542 1 98.6899 1.35742 405.238 98.6899 1.35742 405.238
547 1 101.921 4.31403 404.793 101.921 4.31403 404.793
545 1 100.196 4.29907 406.678 100.196 4.29907 406.678
553 1 105.142 2.83701 404.348 105.142 2.83701 404.348
550 1 103.42 2.82369 406.231 103.42 2.82369 406.231
554 1 105.782 3.55851 406.728 105.782 3.55851 406.728
549 1 102.783 2.10483 403.848 102.783 2.10483 403.848
551 1 104.281 0.616521 405.287 104.281 0.616521 405.287
548 1 102.559 0.603827 407.174 102.559 0.603827 407.174
560 1 -60.5038 0.586835 409.613 -60.5038 0.586835 409.613
558 1 -62.004 2.07268 408.17 -62.004 2.07268 408.17
562 1 -59.6434 2.8087 408.67 -59.6434 2.8087 408.67
559 1 -61.3641 2.79278 410.555 -61.3641 2.79278 410.555
556 1 -62.8647 4.27875 409.113 -62.8647 4.27875 409.113
273 1 -58.7841 0.603492 407.729 -58.7841 0.603492 407.729
565 1 -57.282 3.54296 409.171 -57.282 3.54296 409.171
568 1 -55.7809 2.05594 410.615 -55.7809 2.05594 410.615
567 1 -56.4212 1.33631 408.231 -56.4212 1.33631 408.231
564 1 -58.1426 1.32174 410.113 -58.1426 1.32174 410.113
563 1 -59.0029 3.52778 411.055 -59.0029 3.52778 411.055
573 1 -52.5562 0.582515 410.178 -52.5562 0.582515 410.178
571 1 -54.0574 2.06844 408.735 -54.0574 2.06844 408.735
283 1 -53.1942 4.28694 407.795 -53.1942 4.28694 407.795
569 1 -54.9195 4.27621 409.674 -54.9195 4.27621 409.674
574 1 -51.6936 2.80242 409.239 -51.6936 2.80242 409.239
572 1 -53.4182 2.79002 411.118 -53.4182 2.79002 411.118
576 1 -50.8311 0.594578 408.299 -50.8311 0.594578 408.299
578 1 -49.3304 3.53726 409.742 -49.3304 3.53726 409.742
289 1 -49.9685 2.81566 407.36 -49.9685 2.81566 407.36
580 1 -48.4683 1.33027 408.801 -48.4683 1.33027 408.801
577 1 -50.1929 1.31688 410.681 -50.1929 1.31688 410.681
293 1 -47.6065 3.55136 407.862 -47.6065 3.55136 407.862
299 1 -44.3815 2.07854 407.42 -44.3815 2.07854 407.42
583 1 -46.1052 2.06486 409.302 -46.1052 2.06486 409.302
585 1 -45.2433 4.28554 408.362 -45.2433 4.28554 408.362
582 1 -46.9673 4.27173 410.243 -46.9673 4.27173 410.243
586 1 -44.6043 0.578271 410.743 -44.6043 0.578271 410.743
589 1 -42.8803 0.59189 408.863 -42.8803 0.59189 408.863
591 1 -41.3796 3.53259 410.303 -41.3796 3.53259 410.303
303 1 -42.0188 2.8121 407.922 -42.0188 2.8121 407.922
587 1 -43.7424 2.79872 409.803 -43.7424 2.79872 409.803
592 1 -40.5175 1.32568 409.363 -40.5175 1.32568 409.363