ITEM: TIMESTEP
0
ITEM: NUMBER OF ATOMS
4630
ITEM: BOX BOUNDS xy xz yz pp pp pp
-6.3809581475440247e+01 1.0682861332364025e+02 0.0000000000000000e+00
0.0000000000000000e+00 4.4274527100805940e+00 0.0000000000000000e+00
3.8000000000000000e+02 5.0000000000000000e+02 0.0000000000000000e+00
ITEM: ATOMS id type x y z xu yu zu
7 1 -59.5272 2.73086 399.114 -59.5272 2.73086 399.114
27 1 -45.9604 2.02745 399.663 -45.9604 2.02745 399.663
36 1 -40.327 1.28655 399.721 -40.327 1.28655 399.721
45 1 -34.6965 0.54766 399.783 -34.6965 0.54766 399.783
85 1 -8.93182 0.553037 399.609 -8.93182 0.553037 399.609
94 1 -3.29825 4.23997 399.668 -3.29825 4.23997 399.668
103 1 2.33165 3.50144 399.731 2.33165 3.50144 399.731
112 1 7.96087 2.76325 399.795 7.96087 2.76325 399.795
152 1 33.7193 2.76632 399.617 33.7193 2.76632 399.617
161 1 39.3526 2.02448 399.674 39.3526 2.02448 399.674
170 1 44.9826 1.28463 399.734 44.9826 1.28463 399.734
227 1 82.0044 4.23715 399.668 82.0044 4.23715 399.668
236 1 87.6376 3.49608 399.725 87.6376 3.49608 399.725
245 1 93.267 2.75665 399.785 93.267 2.75665 399.785
5 1 -60.4279 0.516938 399.912 -60.4279 0.516938 399.912
2 1 -62.2293 0.53326 401.684 -62.2293 0.53326 401.684
3 1 -61.3504 2.74431 400.795 -61.3504 2.74431 400.795
1 1 -63.0849 2.7214 402.622 107.553 2.7214 402.622
4 1 -60.7045 3.47759 403.119 -60.7045 3.47759 403.119
9 1 -58.0392 1.19698 400.375 -58.0392 1.19698 400.375
8 1 -58.9162 3.45147 401.33 -58.9162 3.45147 401.33
10 1 -57.4235 1.96501 402.721 -57.4235 1.96501 402.721
6 1 -59.8196 1.25895 402.2 -59.8196 1.25895 402.2
11 1 -56.5596 4.1843 401.799 -56.5596 4.1843 401.799
12 1 -55.6921 2.00467 400.855 -55.6921 2.00467 400.855
16 1 -53.3037 2.70284 401.318 -53.3037 2.70284 401.318
15 1 -54.1764 0.506424 402.302 -54.1764 0.506424 402.302
14 1 -54.8316 4.23469 400.024 -54.8316 4.23469 400.024
17 1 -52.4383 0.504513 400.465 -52.4383 0.504513 400.465
13 1 -55.0408 2.71277 403.199 -55.0408 2.71277 403.199
22 1 -49.1748 3.47688 400.068 -49.1748 3.47688 400.068
20 1 -50.0613 1.25444 400.91 -50.0613 1.25444 400.91
19 1 -50.9412 3.44675 401.834 -50.9412 3.44675 401.834
18 1 -51.7961 1.23461 402.782 -51.7961 1.23461 402.782
21 1 -49.4306 1.98341 403.271 -49.4306 1.98341 403.271
23 1 -48.5577 4.20274 402.363 -48.5577 4.20274 402.363
26 1 -46.1702 0.511059 402.831 -46.1702 0.511059 402.831
24 1 -47.7004 1.98339 401.426 -47.7004 1.98339 401.426
28 1 -45.3044 2.7278 401.936 -45.3044 2.7278 401.936
25 1 -46.8177 4.22552 400.498 -46.8177 4.22552 400.498
29 1 -44.4293 0.495668 400.953 -44.4293 0.495668 400.953
31 1 -43.5636 2.72437 400.102 -43.5636 2.72437 400.102
34 1 -41.1905 3.4848 400.553 -41.1905 3.4848 400.553
32 1 -42.9219 3.4583 402.419 -42.9219 3.4583 402.419
33 1 -42.0727 1.24501 401.48 -42.0727 1.24501 401.48
30 1 -43.7984 1.23961 403.331 -43.7984 1.23961 403.331
35 1 -40.5402 4.19985 402.889 -40.5402 4.19985 402.889
40 1 -37.9322 1.98467 400.162 -37.9322 1.98467 400.162
37 1 -39.6756 1.98906 401.995 -39.6756 1.98906 401.995
41 1 -37.2923 2.7195 402.48 -37.2923 2.7195 402.48
38 1 -38.7995 4.18314 401.013 -38.7995 4.18314 401.013
39 1 -38.169 0.50122 403.391 -38.169 0.50122 403.391
43 1 -35.5599 2.74588 400.614 -35.5599 2.74588 400.614
42 1 -36.4426 0.505903 401.542 -36.4426 0.505903 401.542
44 1 -34.9102 3.46121 402.951 -34.9102 3.46121 402.951
46 1 -34.0454 1.25035 402.057 -34.0454 1.25035 402.057
47 1 -33.1691 3.44448 401.075 -33.1691 3.44448 401.075
49 1 -32.3018 1.24603 400.225 -32.3018 1.24603 400.225
52 1 -29.9296 2.00737 400.677 -29.9296 2.00737 400.677
50 1 -31.6622 1.98095 402.543 -31.6622 1.98095 402.543
51 1 -30.8123 4.19483 401.604 -30.8123 4.19483 401.604
53 1 -29.2801 2.72271 403.013 -29.2801 2.72271 403.013
54 1 -29.0663 4.2366 399.846 -29.0663 4.2366 399.846
48 1 -32.539 4.19016 403.453 -32.539 4.19016 403.453
58 1 -26.6717 0.507506 400.287 -26.6717 0.507506 400.287
59 1 -26.0321 1.24244 402.605 -26.0321 1.24244 402.605
56 1 -27.5389 2.70598 401.138 -27.5389 2.70598 401.138
55 1 -28.4153 0.511841 402.12 -28.4153 0.511841 402.12
60 1 -25.1822 3.45632 401.667 -25.1822 3.45632 401.667
57 1 -26.9089 3.45168 403.516 -26.9089 3.45168 403.516
61 1 -24.2996 1.26884 400.74 -24.2996 1.26884 400.74
63 1 -23.4363 3.49808 399.909 -23.4363 3.49808 399.909
62 1 -23.65 1.98413 403.076 -23.65 1.98413 403.076
64 1 -22.7852 4.20069 402.182 -22.7852 4.20069 402.182
65 1 -21.909 1.9673 401.201 -21.909 1.9673 401.201
66 1 -21.2788 2.71298 403.579 -21.2788 2.71298 403.579
70 1 -18.6696 0.529807 400.802 -18.6696 0.529807 400.802
68 1 -20.4019 0.503689 402.668 -20.4019 0.503689 402.668
69 1 -19.5524 2.71734 401.729 -19.5524 2.71734 401.729
67 1 -21.0417 4.19628 400.35 -21.0417 4.19628 400.35
72 1 -17.8077 2.75874 399.97 -17.8077 2.75874 399.97
71 1 -18.0193 1.24527 403.138 -18.0193 1.24527 403.138
75 1 -15.4138 3.45758 400.41 -15.4138 3.45758 400.41
74 1 -16.2786 1.22875 401.262 -16.2786 1.22875 401.262
73 1 -17.1555 3.4616 402.244 -17.1555 3.4616 402.244
76 1 -14.7711 4.1888 402.725 -14.7711 4.1888 402.725
77 1 -13.9149 1.97291 401.778 -13.9149 1.97291 401.778
348 1 -15.6456 1.97208 403.636 -15.6456 1.97208 403.636
80 1 -12.147 2.00264 400.013 -12.147 2.00264 400.013
81 1 -11.5305 2.72888 402.308 -11.5305 2.72888 402.308
78 1 -13.035 4.20763 400.855 -13.035 4.20763 400.855
79 1 -12.404 0.509896 403.215 -12.404 0.509896 403.215
83 1 -9.78962 2.75111 400.443 -9.78962 2.75111 400.443
82 1 -10.673 0.509075 401.371 -10.673 0.509075 401.371
87 1 -7.40097 3.44891 400.899 -7.40097 3.44891 400.899
84 1 -9.14244 3.46465 402.777 -9.14244 3.46465 402.777
86 1 -8.27643 1.25372 401.882 -8.27643 1.25372 401.882
89 1 -6.53505 1.25015 400.048 -6.53505 1.25015 400.048
90 1 -5.89373 1.98431 402.365 -5.89373 1.98431 402.365
88 1 -6.77037 4.19319 403.277 -6.77037 4.19319 403.277
92 1 -4.16196 2.01076 400.499 -4.16196 2.01076 400.499
93 1 -3.51195 2.72594 402.836 -3.51195 2.72594 402.836
91 1 -5.0443 4.19842 401.427 -5.0443 4.19842 401.427
96 1 -1.77103 2.70921 400.96 -1.77103 2.70921 400.96
95 1 -2.64724 0.515132 401.942 -2.64724 0.515132 401.942
98 1 -0.90361 0.510758 400.11 -0.90361 0.510758 400.11
100 1 0.585647 3.4596 401.49 0.585647 3.4596 401.49
99 1 -0.26418 1.24569 402.428 -0.26418 1.24569 402.428
97 1 -1.14092 3.45485 403.339 -1.14092 3.45485 403.339
101 1 1.46836 1.2722 400.562 1.46836 1.2722 400.562
102 1 2.11767 1.98746 402.899 2.11767 1.98746 402.899
105 1 3.85882 1.97087 401.024 3.85882 1.97087 401.024
104 1 2.98248 4.20409 402.005 2.98248 4.20409 402.005
108 1 5.3653 0.507362 402.491 5.3653 0.507362 402.491
107 1 4.72609 4.19988 400.173 4.72609 4.19988 400.173
106 1 4.48856 2.71651 403.402 4.48856 2.71651 403.402
110 1 7.09776 0.534001 400.626 7.09776 0.534001 400.626
111 1 7.747 1.24914 402.963 7.747 1.24914 402.963
109 1 6.21515 2.72136 401.553 6.21515 2.72136 401.553
113 1 8.61175 3.4658 402.069 8.61175 3.4658 402.069
114 1 9.48803 1.23262 401.087 9.48803 1.23262 401.087
116 1 10.3552 3.46162 400.236 10.3552 3.46162 400.236
118 1 11.8442 1.98304 401.617 11.8442 1.98304 401.617
117 1 10.9944 4.19648 402.555 10.9944 4.19648 402.555
121 1 13.5896 2.02489 399.858 13.5896 2.02489 399.858
120 1 13.376 0.510685 403.026 13.376 0.510685 403.026
119 1 12.7267 4.22313 400.689 12.7267 4.22313 400.689
115 1 10.1177 1.97817 403.466 10.1177 1.97817 403.466
122 1 14.2406 2.72733 402.132 14.2406 2.72733 402.132
123 1 15.1168 0.494153 401.15 15.1168 0.494153 401.15
125 1 15.9839 2.72312 400.299 15.9839 2.72312 400.299
126 1 16.6232 3.45786 402.618 16.6232 3.45786 402.618
127 1 17.4729 1.2444 401.679 17.4729 1.2444 401.679
124 1 15.7467 1.23959 403.529 15.7467 1.23959 403.529
130 1 19.2179 1.28618 399.92 19.2179 1.28618 399.92
128 1 18.3552 3.48443 400.752 18.3552 3.48443 400.752
129 1 19.0048 4.1993 403.089 19.0048 4.1993 403.089
131 1 19.8694 1.98843 402.195 19.8694 1.98843 402.195
132 1 20.7453 4.18261 401.213 20.7453 4.18261 401.213
133 1 21.3756 0.500467 403.591 21.3756 0.500467 403.591
134 1 21.6123 1.98409 400.361 21.6123 1.98409 400.361
136 1 23.1014 0.504902 401.741 23.1014 0.504902 401.741
135 1 22.2522 2.71865 402.68 22.2522 2.71865 402.68
139 1 24.8451 0.546232 399.981 24.8451 0.546232 399.981
137 1 23.9838 2.74481 400.813 23.9838 2.74481 400.813
138 1 24.6344 3.45982 403.15 24.6344 3.45982 403.15
141 1 26.3744 3.44333 401.272 26.3744 3.44333 401.272
140 1 25.4979 1.24868 402.255 25.4979 1.24868 402.255
142 1 27.2389 1.24464 400.42 27.2389 1.24464 400.42
143 1 27.882 1.97545 402.736 27.882 1.97545 402.736
144 1 28.7378 4.18696 401.788 28.7378 4.18696 401.788
145 1 29.6174 1.99413 400.864 29.6174 1.99413 400.864
147 1 30.5047 4.21648 400.022 30.5047 4.21648 400.022
146 1 30.2489 2.72349 403.225 30.2489 2.72349 403.225
150 1 32.862 0.537023 400.452 32.862 0.537023 400.452
148 1 31.122 0.514948 402.317 31.122 0.514948 402.317
149 1 31.9791 2.72258 401.38 31.9791 2.72258 401.38
153 1 34.3756 3.46663 401.89 34.3756 3.46663 401.89
151 1 33.51 1.25018 402.785 33.51 1.25018 402.785
156 1 36.1161 3.4629 400.055 36.1161 3.4629 400.055
154 1 35.2506 1.23429 400.907 35.2506 1.23429 400.907
157 1 36.7583 4.19665 402.372 36.7583 4.19665 402.372
155 1 35.8821 1.97816 403.284 35.8821 1.97816 403.284
158 1 37.6073 1.98317 401.433 37.6073 1.98317 401.433
159 1 38.4893 4.22281 400.505 38.4893 4.22281 400.505
162 1 40.0046 2.72677 401.948 40.0046 2.72677 401.948
160 1 39.1402 0.51023 402.842 39.1402 0.51023 402.842
163 1 40.8803 0.493282 400.965 40.8803 0.493282 400.965
165 1 41.7474 2.7222 400.114 41.7474 2.7222 400.114
164 1 41.5115 1.23856 403.343 41.5115 1.23856 403.343
168 1 44.1197 3.48291 400.566 44.1197 3.48291 400.566
167 1 43.2373 1.24304 401.493 43.2373 1.24304 401.493
166 1 42.3879 3.45675 402.432 42.3879 3.45675 402.432
169 1 44.77 4.19799 402.902 44.77 4.19799 402.902
171 1 45.6345 1.98705 402.008 45.6345 1.98705 402.008
174 1 47.3774 1.98263 400.175 47.3774 1.98263 400.175
175 1 48.0178 2.71728 402.492 48.0178 2.71728 402.492
172 1 46.5104 4.18115 401.026 46.5104 4.18115 401.026
173 1 47.1413 0.499074 403.404 47.1413 0.499074 403.404
177 1 49.7496 2.74357 400.626 49.7496 2.74357 400.626
176 1 48.8672 0.503651 401.554 48.8672 0.503651 401.554
179 1 50.6125 0.545309 399.794 50.6125 0.545309 399.794
181 1 52.1402 3.4419 401.086 52.1402 3.4419 401.086
178 1 50.3999 3.45866 402.962 50.3999 3.45866 402.962
180 1 51.2643 1.24776 402.068 51.2643 1.24776 402.068
183 1 53.0072 1.2434 400.235 53.0072 1.2434 400.235
184 1 53.6476 1.97809 402.553 53.6476 1.97809 402.553
186 1 55.3793 2.00447 400.687 55.3793 2.00447 400.687
187 1 56.0296 2.71956 403.023 56.0296 2.71956 403.023
188 1 56.2422 4.23366 399.855 56.2422 4.23366 399.855
185 1 54.497 4.19196 401.614 54.497 4.19196 401.614
182 1 52.7711 4.18732 403.464 52.7711 4.18732 403.464
189 1 56.8941 0.508685 402.129 56.8941 0.508685 402.129
192 1 58.6369 0.504356 400.296 58.6369 0.504356 400.296
194 1 60.1267 3.45297 401.675 60.1267 3.45297 401.675
193 1 59.2773 1.23908 402.613 59.2773 1.23908 402.613
190 1 57.77 2.70285 401.147 57.77 2.70285 401.147
191 1 58.4009 3.4483 403.525 58.4009 3.4483 403.525
195 1 61.0089 1.2655 400.747 61.0089 1.2655 400.747
197 1 61.8717 3.4947 399.915 61.8717 3.4947 399.915
199 1 63.3996 1.9639 401.207 63.3996 1.9639 401.207
196 1 61.6593 1.9806 403.083 61.6593 1.9806 403.083
198 1 62.5237 4.19718 402.189 62.5237 4.19718 402.189
200 1 64.0306 2.70937 403.585 64.0306 2.70937 403.585
202 1 64.9069 0.500146 402.674 64.9069 0.500146 402.674
201 1 64.2664 4.19285 400.356 64.2664 4.19285 400.356
206 1 67.5011 2.75576 399.976 67.5011 2.75576 399.976
204 1 66.6384 0.526554 400.807 66.6384 0.526554 400.807
203 1 65.7563 2.71404 401.735 65.7563 2.71404 401.735
205 1 67.289 1.24162 403.144 67.289 1.24162 403.144
207 1 68.1533 3.45818 402.249 68.1533 3.45818 402.249
209 1 69.8958 3.45378 400.416 69.8958 3.45378 400.416
208 1 69.0289 1.22482 401.267 69.0289 1.22482 401.267
211 1 71.3856 1.97468 401.795 71.3856 1.97468 401.795
210 1 70.5367 4.18847 402.733 70.5367 4.18847 402.733
212 1 72.2679 4.21459 400.867 72.2679 4.21459 400.867
214 1 73.1292 2.01604 400.034 73.1292 2.01604 400.034
217 1 75.5233 2.7147 400.473 75.5233 2.7147 400.473
216 1 74.6589 0.485899 401.325 74.6589 0.485899 401.325
215 1 73.7826 2.71873 402.308 73.7826 2.71873 402.308
213 1 72.9193 0.502414 403.203 72.9193 0.502414 403.203
218 1 76.1671 3.44577 402.788 76.1671 3.44577 402.788
220 1 77.9022 3.46454 400.916 77.9022 3.46454 400.916
219 1 77.0227 1.22986 401.84 77.0227 1.22986 401.84
222 1 78.7896 1.25951 400.074 78.7896 1.25951 400.074
223 1 79.4073 1.98564 402.369 79.4073 1.98564 402.369
221 1 78.5343 4.19414 403.276 78.5343 4.19414 403.276
224 1 80.2643 4.19328 401.431 80.2643 4.19328 401.431
225 1 81.1471 2.0078 400.503 81.1471 2.0078 400.503
229 1 83.5359 2.7054 400.958 83.5359 2.7054 400.958
228 1 82.661 0.51025 401.941 82.661 0.51025 401.941
226 1 81.7955 2.72122 402.836 81.7955 2.72122 402.836
231 1 84.4013 0.506597 400.106 84.4013 0.506597 400.106
234 1 86.7745 1.26692 400.556 86.7745 1.26692 400.556
233 1 85.8927 3.45467 401.484 85.8927 3.45467 401.484
235 1 87.4257 1.98199 402.893 87.4257 1.98199 402.893
232 1 85.0438 1.24062 402.424 85.0438 1.24062 402.424
230 1 84.1677 3.44957 403.335 84.1677 3.44957 403.335
241 1 90.6729 0.501322 402.483 90.6729 0.501322 402.483
238 1 89.1655 1.96506 401.016 89.1655 1.96506 401.016
240 1 90.0324 4.19398 400.165 90.0324 4.19398 400.165
237 1 88.2898 4.19853 401.999 88.2898 4.19853 401.999
239 1 89.7968 2.71066 403.394 89.7968 2.71066 403.394
242 1 91.5222 2.71508 401.544 91.5222 2.71508 401.544
243 1 92.4043 0.527495 400.617 92.4043 0.527495 400.617
247 1 94.7945 1.22544 401.077 94.7945 1.22544 401.077
246 1 93.9189 3.459 402.059 93.9189 3.459 402.059
244 1 93.0548 1.24266 402.953 93.0548 1.24266 402.953
254 1 98.8932 2.01488 399.847 98.8932 2.01488 399.847
249 1 95.6614 3.45424 400.226 95.6614 3.45424 400.226
253 1 98.6834 0.50303 403.015 98.6834 0.50303 403.015
251 1 97.1501 1.97491 401.606 97.1501 1.97491 401.606
252 1 98.0325 4.21407 400.679 98.0325 4.21407 400.679
250 1 96.3015 4.18913 402.544 96.3015 4.18913 402.544
248 1 95.4255 1.97143 403.456 95.4255 1.97143 403.456
258 1 101.286 2.7092 400.288 101.286 2.7092 400.288
255 1 99.5461 2.71813 402.121 99.5461 2.71813 402.121
259 1 101.925 3.45392 402.612 101.925 3.45392 402.612
260 1 102.77 1.24166 401.684 102.77 1.24166 401.684
256 1 100.423 0.483139 401.139 100.423 0.483139 401.139
257 1 101.052 1.23622 403.522 101.052 1.23622 403.522
263 1 104.481 1.27192 399.933 104.481 1.27192 399.933
261 1 103.637 3.48153 400.752 103.637 3.48153 400.752
264 1 105.196 1.98411 402.155 105.196 1.98411 402.155
265 1 106.044 4.18056 401.201 106.044 4.18056 401.201
262 1 104.32 4.19702 403.068 104.32 4.19702 403.068
266 1 106.695 0.496131 403.567 106.695 0.496131 403.567
268 1 -62.431 3.45408 404.993 -62.431 3.45408 404.993
271 1 -60.9213 1.976 406.435 -60.9213 1.976 406.435
270 1 -61.5678 1.25122 404.051 -61.5678 1.25122 404.051
267 1 -63.296 1.2346 405.935 -63.296 1.2346 405.935
272 1 -60.0572 4.19699 405.5 -60.0572 4.19699 405.5
269 1 -61.7878 4.18321 407.373 -61.7878 4.18321 407.373
277 1 -57.67 0.502284 406.007 -57.67 0.502284 406.007
274 1 -59.1869 1.98739 404.564 -59.1869 1.98739 404.564
278 1 -56.7927 2.71306 405.073 -56.7927 2.71306 405.073
275 1 -58.5404 2.71327 406.937 -58.5404 2.71327 406.937
276 1 -58.31 4.19741 403.652 -58.31 4.19741 403.652
279 1 -56.1561 3.44484 407.441 -56.1561 3.44484 407.441
280 1 -55.9191 0.497078 404.147 -55.9191 0.497078 404.147
286 1 -52.6704 3.44392 403.695 -52.6704 3.44392 403.695
282 1 -54.4096 3.44444 405.574 -54.4096 3.44444 405.574
284 1 -53.5373 1.23376 404.648 -53.5373 1.23376 404.648
281 1 -55.2837 1.23139 406.511 -55.2837 1.23139 406.511
285 1 -52.9016 1.9665 407.014 -52.9016 1.9665 407.014
291 1 -49.6525 0.494792 406.578 -49.6525 0.494792 406.578
288 1 -51.1615 1.97336 405.145 -51.1615 1.97336 405.145
292 1 -48.7838 2.71411 405.643 -48.7838 2.71411 405.643
287 1 -52.0317 4.18136 406.076 -52.0317 4.18136 406.076
290 1 -50.2968 4.18883 404.206 -50.2968 4.18883 404.206
294 1 -47.9129 0.506053 404.71 -47.9129 0.506053 404.71
297 1 -46.4034 3.45009 406.145 -46.4034 3.45009 406.145
296 1 -47.0474 2.72079 403.775 -47.0474 2.72079 403.775
298 1 -45.5335 1.23958 405.206 -45.5335 1.23958 405.206
295 1 -47.2721 1.23302 407.079 -47.2721 1.23302 407.079
300 1 -44.6633 3.45711 404.281 -44.6633 3.45711 404.281
306 1 -41.4163 1.98015 403.835 -41.4163 1.98015 403.835
302 1 -43.1525 1.97418 405.705 -43.1525 1.97418 405.705
304 1 -42.2797 4.19311 404.772 -42.2797 4.19311 404.772
301 1 -44.0208 4.18604 406.644 -44.0208 4.18604 406.644
305 1 -41.6403 0.493968 407.142 -41.6403 0.493968 407.142
307 1 -40.7723 2.71055 406.207 -40.7723 2.71055 406.207
310 1 -39.0338 2.71861 404.341 -39.0338 2.71861 404.341
312 1 -37.5226 1.23589 405.766 -37.5226 1.23589 405.766
311 1 -38.3904 3.44737 406.705 -38.3904 3.44737 406.705
308 1 -39.9025 0.500466 405.267 -39.9025 0.500466 405.267
313 1 -36.6501 3.45485 404.833 -36.6501 3.45485 404.833
315 1 -35.7865 1.24173 403.897 -35.7865 1.24173 403.897
316 1 -35.1425 1.97237 406.268 -35.1425 1.97237 406.268
317 1 -34.2728 4.18963 405.329 -34.2728 4.18963 405.329
314 1 -36.0103 4.18318 407.203 -36.0103 4.18318 407.203
319 1 -33.4039 1.98019 404.403 -33.4039 1.98019 404.403
320 1 -32.7605 2.70915 406.768 -32.7605 2.70915 406.768
324 1 -30.1565 0.503274 403.959 -30.1565 0.503274 403.959
321 1 -31.8927 0.497579 405.829 -31.8927 0.497579 405.829
322 1 -31.0202 2.71645 404.895 -31.0202 2.71645 404.895
323 1 -30.3804 3.44491 407.266 -30.3804 3.44491 407.266
325 1 -29.5125 1.23403 406.331 -29.5125 1.23403 406.331
328 1 -27.7738 1.24173 404.465 -27.7738 1.24173 404.465
326 1 -28.6428 3.45123 405.392 -28.6428 3.45123 405.392
329 1 -27.1305 1.97077 406.83 -27.1305 1.97077 406.83
330 1 -26.2626 4.1866 405.891 -26.2626 4.1866 405.891
331 1 -25.3901 1.97797 404.958 -25.3901 1.97797 404.958
337 1 -22.1436 0.503125 404.528 -22.1436 0.503125 404.528
334 1 -23.8824 0.495536 406.394 -23.8824 0.495536 406.394
335 1 -23.0126 2.71267 405.455 -23.0126 2.71267 405.455
333 1 -24.5264 4.19221 404.022 -24.5264 4.19221 404.022
338 1 -21.5003 1.23213 406.893 -21.5003 1.23213 406.893
332 1 -24.7503 2.70646 407.329 -24.7503 2.70646 407.329
340 1 -19.7597 1.23921 405.02 -19.7597 1.23921 405.02
342 1 -18.8962 3.45331 404.084 -18.8962 3.45331 404.084
339 1 -20.6325 3.44788 405.954 -20.6325 3.44788 405.954
344 1 -17.3816 1.97301 405.515 -17.3816 1.97301 405.515
343 1 -18.2522 4.18364 406.456 -18.2522 4.18364 406.456
341 1 -19.1201 1.96741 407.391 -19.1201 1.96741 407.391
347 1 -15.8727 0.493574 406.958 -15.8727 0.493574 406.958
349 1 -15.0047 2.70945 406.018 -15.0047 2.70945 406.018
346 1 -16.5131 4.19033 404.589 -16.5131 4.19033 404.589
350 1 -14.1354 0.501045 405.088 -14.1354 0.501045 405.088
351 1 -13.4933 1.23215 407.458 -13.4933 1.23215 407.458
353 1 -12.6251 3.44959 406.522 -12.6251 3.44959 406.522
352 1 -13.2704 2.71589 404.149 -13.2704 2.71589 404.149
354 1 -11.7568 1.24115 405.587 -11.7568 1.24115 405.587
356 1 -10.8857 3.46022 404.655 -10.8857 3.46022 404.655
358 1 -10.02 1.24714 403.72 -10.02 1.24714 403.72
357 1 -10.2444 4.1874 407.024 -10.2444 4.1874 407.024
363 1 -6.99295 2.71258 406.59 -6.99295 2.71258 406.59
359 1 -9.37584 1.97681 406.09 -9.37584 1.97681 406.09
362 1 -7.63552 1.98341 404.226 -7.63552 1.98341 404.226
360 1 -8.50584 4.19355 405.152 -8.50584 4.19355 405.152
364 1 -6.12465 0.500569 405.651 -6.12465 0.500569 405.651
368 1 -4.38815 0.506308 403.782 -4.38815 0.506308 403.782
366 1 -5.2517 2.71936 404.718 -5.2517 2.71936 404.718
369 1 -3.74437 1.23688 406.154 -3.74437 1.23688 406.154
367 1 -4.6124 3.44784 407.088 -4.6124 3.44784 407.088
370 1 -2.87458 3.45417 405.214 -2.87458 3.45417 405.214
372 1 -2.00575 1.2448 404.288 -2.00575 1.2448 404.288
376 1 0.377704 1.98109 404.781 0.377704 1.98109 404.781
373 1 -1.36259 1.97367 406.653 -1.36259 1.97367 406.653
374 1 -0.494765 4.18961 405.714 -0.494765 4.18961 405.714
379 1 1.88511 0.498652 406.217 1.88511 0.498652 406.217
378 1 1.24133 4.19542 403.845 1.24133 4.19542 403.845
377 1 1.0173 2.70948 407.152 1.0173 2.70948 407.152
383 1 4.26678 1.23544 406.717 4.26678 1.23544 406.717
380 1 2.75479 2.71591 405.278 2.75479 2.71591 405.278
382 1 3.62369 0.506472 404.351 3.62369 0.506472 404.351
384 1 5.13458 3.45134 405.777 5.13458 3.45134 405.777
385 1 6.00706 1.24278 404.844 6.00706 1.24278 404.844
387 1 6.87069 3.45711 403.909 6.87069 3.45711 403.909
388 1 7.51441 4.18781 406.28 7.51441 4.18781 406.28
386 1 6.64662 1.97121 407.215 6.64662 1.97121 407.215
389 1 8.38407 1.97757 405.341 8.38407 1.97757 405.341
391 1 9.25293 4.19558 404.415 9.25293 4.19558 404.415
392 1 9.89603 0.497081 406.78 9.89603 0.497081 406.78
393 1 10.7638 2.71296 405.841 10.7638 2.71296 405.841
394 1 11.6362 0.504376 404.908 11.6362 0.504376 404.908
396 1 12.4998 2.71869 403.972 12.4998 2.71869 403.972
397 1 13.1436 3.44933 406.344 13.1436 3.44933 406.344
395 1 12.2758 1.23277 407.279 12.2758 1.23277 407.279
398 1 14.0132 1.23906 405.405 14.0132 1.23906 405.405
400 1 14.882 3.45703 404.478 14.882 3.45703 404.478
401 1 15.5252 4.18592 406.843 15.5252 4.18592 406.843
402 1 16.3929 1.9743 405.904 16.3929 1.9743 405.904
403 1 17.2653 4.19312 404.971 17.2653 4.19312 404.971
405 1 18.1288 1.97993 404.035 18.1288 1.97993 404.035
406 1 18.7728 2.71048 406.407 18.7728 2.71048 406.407
409 1 20.5111 2.71804 404.541 20.5111 2.71804 404.541
410 1 21.1545 3.44679 406.906 21.1545 3.44679 406.906
407 1 19.6423 0.500133 405.467 19.6423 0.500133 405.467
404 1 17.9051 0.493972 407.342 17.9051 0.493972 407.342
412 1 22.8947 3.45381 405.033 22.8947 3.45381 405.033
411 1 22.0221 1.23506 405.966 22.0221 1.23506 405.966
415 1 24.4021 1.97045 406.468 24.4021 1.97045 406.468
414 1 23.7578 1.24045 404.096 23.7578 1.24045 404.096
416 1 25.2725 4.18721 405.527 25.2725 4.18721 405.527
413 1 23.5346 4.18172 407.403 23.5346 4.18172 407.403
418 1 26.1407 1.97704 404.6 26.1407 1.97704 404.6
419 1 26.7814 2.7074 406.969 26.7814 2.7074 406.969
420 1 27.0078 4.18622 403.647 27.0078 4.18622 403.647
421 1 27.6492 0.495767 406.029 27.6492 0.495767 406.029
422 1 28.5182 2.71476 405.098 28.5182 2.71476 405.098
424 1 29.3829 0.502109 404.159 29.3829 0.502109 404.159
426 1 30.8967 3.45435 405.597 30.8967 3.45435 405.597
425 1 30.0287 1.23541 406.532 30.0287 1.23541 406.532
430 1 32.6328 3.46021 403.729 32.6328 3.46021 403.729
428 1 31.7675 1.24589 404.664 31.7675 1.24589 404.664
429 1 32.4094 1.97267 407.033 32.4094 1.97267 407.033
432 1 34.1473 1.97867 405.16 34.1473 1.97867 405.16
431 1 33.2776 4.18946 406.099 33.2776 4.18946 406.099
435 1 35.6606 0.497203 406.597 35.6606 0.497203 406.597
436 1 36.5286 2.71258 405.658 36.5286 2.71258 405.658
434 1 35.0173 4.19592 404.234 35.0173 4.19592 404.234
440 1 38.2644 2.71816 403.788 38.2644 2.71816 403.788
438 1 37.4012 0.503843 404.725 37.4012 0.503843 404.725
439 1 38.0413 1.23189 407.095 38.0413 1.23189 407.095
442 1 39.7785 1.23807 405.22 39.7785 1.23807 405.22
441 1 38.909 3.44831 406.159 38.909 3.44831 406.159
444 1 40.647 3.45607 404.293 40.647 3.45607 404.293
446 1 42.1586 1.97295 405.718 42.1586 1.97295 405.718
445 1 41.2911 4.18453 406.658 41.2911 4.18453 406.658
450 1 43.894 1.9786 403.848 43.894 1.9786 403.848
451 1 44.5388 2.70891 406.22 44.5388 2.70891 406.22
448 1 43.0307 4.19181 404.785 43.0307 4.19181 404.785
449 1 43.6713 0.492342 407.155 43.6713 0.492342 407.155
452 1 45.4082 0.498655 405.28 45.4082 0.498655 405.28
454 1 46.2768 2.7166 404.353 46.2768 2.7166 404.353
457 1 48.6605 3.45245 404.845 48.6605 3.45245 404.845
455 1 46.9208 3.44522 406.718 46.9208 3.44522 406.718
456 1 47.7883 1.23361 405.778 47.7883 1.23361 405.778
459 1 49.5239 1.23925 403.909 49.5239 1.23925 403.909
458 1 49.3011 4.18056 407.215 49.3011 4.18056 407.215
460 1 50.1686 1.96967 406.28 50.1686 1.96967 406.28
463 1 51.9066 1.97736 404.414 51.9066 1.97736 404.414
461 1 51.038 4.18686 405.341 51.038 4.18686 405.341
464 1 52.5507 2.70607 406.779 52.5507 2.70607 406.779
465 1 53.4182 0.49447 405.839 53.4182 0.49447 405.839
468 1 55.1537 0.500137 403.969 55.1537 0.500137 403.969
466 1 54.2904 2.71332 404.906 54.2904 2.71332 404.906
469 1 55.7984 1.23062 406.341 55.7984 1.23062 406.341
467 1 54.9309 3.4415 407.276 54.9309 3.4415 407.276
470 1 56.6678 3.44782 405.401 56.6678 3.44782 405.401
472 1 57.5364 1.23833 404.474 57.5364 1.23833 404.474
475 1 59.9201 1.97436 404.966 59.9201 1.97436 404.966
473 1 58.1805 1.9671 406.839 58.1805 1.9671 406.839
474 1 59.048 4.18296 405.9 59.048 4.18296 405.9
477 1 60.7834 4.18863 404.03 60.7834 4.18863 404.03
481 1 63.1661 0.499405 404.535 63.1661 0.499405 404.535
478 1 61.4283 0.491716 406.401 61.4283 0.491716 406.401
479 1 62.2976 2.7089 405.462 62.2976 2.7089 405.462
482 1 63.8104 1.22824 406.9 63.8104 1.22824 406.9
476 1 60.5608 2.7026 407.336 60.5608 2.7026 407.336
483 1 64.6778 3.44408 405.96 64.6778 3.44408 405.96
486 1 66.4131 3.4497 404.09 66.4131 3.4497 404.09
488 1 67.9274 1.96997 405.522 67.9274 1.96997 405.522
484 1 65.5499 1.23545 405.026 65.5499 1.23545 405.026
487 1 67.0581 4.18028 406.461 67.0581 4.18028 406.461
485 1 66.1907 1.96375 407.397 66.1907 1.96375 407.397
490 1 68.796 4.18788 404.595 68.796 4.18788 404.595
493 1 70.3077 2.70502 406.02 70.3077 2.70502 406.02
491 1 69.4403 0.489265 406.959 69.4403 0.489265 406.959
494 1 71.18 0.496356 405.086 71.18 0.496356 405.086
492 1 69.6602 1.9703 403.645 69.6602 1.9703 403.645
496 1 72.0429 2.71046 404.149 72.0429 2.71046 404.149
497 1 72.688 3.44064 406.52 72.688 3.44064 406.52
500 1 74.4261 3.44731 404.652 74.4261 3.44731 404.652
498 1 73.5582 1.23 405.58 73.5582 1.23 405.58
502 1 75.2931 1.22906 403.7 75.2931 1.22906 403.7
501 1 75.0677 4.1779 407.021 75.0677 4.1779 407.021
503 1 75.9353 1.96631 406.081 75.9353 1.96631 406.081
506 1 77.6685 1.97272 404.211 77.6685 1.97272 404.211
507 1 78.315 2.70633 406.583 78.315 2.70633 406.583
504 1 76.804 4.18534 405.15 76.804 4.18534 405.15
508 1 79.1828 0.497854 405.648 79.1828 0.497854 405.648
510 1 80.0534 2.71688 404.715 80.0534 2.71688 404.715
512 1 80.9185 0.503768 403.78 80.9185 0.503768 403.78
514 1 82.4334 3.45007 405.211 82.4334 3.45007 405.211
516 1 83.3031 1.23987 404.285 83.3031 1.23987 404.285
513 1 81.5639 1.2334 406.15 81.5639 1.2334 406.15
511 1 80.6959 3.44405 407.084 80.6959 3.44405 407.084
517 1 83.9471 1.96908 406.648 83.9471 1.96908 406.648
523 1 87.1953 0.493208 406.21 87.1953 0.493208 406.21
520 1 85.6871 1.97565 404.776 85.6871 1.97565 404.776
518 1 84.8148 4.18442 405.709 84.8148 4.18442 405.709
522 1 86.5501 4.18994 403.839 86.5501 4.18994 403.839
521 1 86.3279 2.70431 407.146 86.3279 2.70431 407.146
526 1 88.9327 0.500791 404.344 88.9327 0.500791 404.344
528 1 90.4446 3.44573 405.769 90.4446 3.44573 405.769
524 1 88.0645 2.71033 405.271 88.0645 2.71033 405.271
529 1 91.3163 1.23694 404.836 91.3163 1.23694 404.836
527 1 89.5774 1.23002 406.709 89.5774 1.23002 406.709
536 1 95.2074 0.492323 406.769 95.2074 0.492323 406.769
531 1 92.1792 3.45099 403.9 92.1792 3.45099 403.9
533 1 93.6937 1.97182 405.332 93.6937 1.97182 405.332
532 1 92.8249 4.1824 406.271 92.8249 4.1824 406.271
535 1 94.5617 4.18939 404.405 94.5617 4.18939 404.405
530 1 91.9578 1.96606 407.206 91.9578 1.96606 407.206
538 1 96.9457 0.498656 404.897 96.9457 0.498656 404.897
541 1 98.455 3.44618 406.332 98.455 3.44618 406.332
540 1 97.808 2.71215 403.961 97.808 2.71215 403.961
537 1 96.0742 2.7078 405.83 96.0742 2.7078 405.83
539 1 97.5884 1.22964 407.267 97.5884 1.22964 407.267
546 1 101.71 1.97312 405.885 101.71 1.97312 405.885
544 1 100.19 3.45365 404.468 100.19 3.45365 404.468
542 1 99.3234 1.23589 405.394 99.3234 1.23589 405.394
547 1 102.582 4.19208 404.952 102.582 4.19208 404.952
545 1 100.841 4.18441 406.826 100.841 4.18441 406.826
553 1 105.83 2.71344 404.506 105.83 2.71344 404.506
550 1 104.093 2.70734 406.381 104.093 2.70734 406.381
554 1 106.474 3.44431 406.875 106.474 3.44431 406.875
549 1 103.451 1.97906 404.011 103.451 1.97906 404.011
551 1 104.962 0.49663 405.441 104.962 0.49663 405.441
548 1 103.225 0.491261 407.319 103.225 0.491261 407.319
560 1 -61.1438 0.484682 409.747 -61.1438 0.484682 409.747
558 1 -62.6544 1.96443 408.311 -62.6544 1.96443 408.311
562 1 -60.276 2.70331 408.81 -60.276 2.70331 408.81
559 1 -62.0115 2.694 410.684 -62.0115 2.694 410.684
556 1 -63.5225 4.17394 409.249 -63.5225 4.17394 409.249
273 1 -59.4092 0.494897 407.874 -59.4092 0.494897 407.874
565 1 -57.8963 3.44 409.31 -57.8963 3.44 409.31
568 1 -56.3843 1.95844 410.748 -56.3843 1.95844 410.748
567 1 -57.0275 1.22981 408.376 -57.0275 1.22981 408.376
564 1 -58.7646 1.22218 410.247 -58.7646 1.22218 410.247
563 1 -59.6324 3.43156 411.183 -59.6324 3.43156 411.183
573 1 -53.1331 0.482978 410.316 -53.1331 0.482978 410.316
571 1 -54.6448 1.96351 408.88 -54.6448 1.96351 408.88
283 1 -53.7733 4.17823 407.945 -53.7733 4.17823 407.945
569 1 -55.515 4.17505 409.813 -55.515 4.17505 409.813
574 1 -52.2624 2.69912 409.383 -52.2624 2.69912 409.383
572 1 -54.0031 2.69427 411.25 -54.0031 2.69427 411.25
576 1 -51.3919 0.487452 408.448 -51.3919 0.487452 408.448
578 1 -49.881 3.43586 409.884 -49.881 3.43586 409.884
289 1 -50.5214 2.70492 407.515 -50.5214 2.70492 407.515
580 1 -49.0111 1.2252 408.949 -49.0111 1.2252 408.949
577 1 -50.7513 1.21915 410.818 -50.7513 1.21915 410.818
293 1 -48.1416 3.44278 408.014 -48.1416 3.44278 408.014
299 1 -44.891 1.96861 407.577 -44.891 1.96861 407.577
583 1 -46.63 1.96202 409.449 -46.63 1.96202 409.449
585 1 -45.7604 4.17913 408.514 -45.7604 4.17913 408.514
582 1 -47.4997 4.17244 410.384 -47.4997 4.17244 410.384
586 1 -45.1186 0.481061 410.883 -45.1186 0.481061 410.883
589 1 -43.3794 0.487524 409.013 -43.3794 0.487524 409.013
591 1 -41.8681 3.43381 410.447 -41.8681 3.43381 410.447
303 1 -42.5104 2.70408 408.077 -42.5104 2.70408 408.077
587 1 -44.2491 2.69792 409.948 -44.2491 2.69792 409.948
592 1 -40.9985 1.22334 409.511 -40.9985 1.22334 409.511
309 1 -39.26 1.22976 407.639 -39.26 1.22976 407.639