ITEM: TIMESTEP
0
ITEM: NUMBER OF ATOMS
4630
ITEM: BOX BOUNDS xy xz yz pp pp pp
-6.3518077033627712e+01 1.0653710888182771e+02 0.0000000000000000e+00
0.0000000000000000e+00 4.4274527100805940e+00 0.0000000000000000e+00
3.8000000000000000e+02 5.0000000000000000e+02 0.0000000000000000e+00
ITEM: ATOMS id type x y z xu yu zu
27 1 -45.7424 2.08837 399.578 -45.7424 2.08837 399.578
36 1 -40.1265 1.34703 399.636 -40.1265 1.34703 399.636
31 1 -43.349 2.78374 400.017 -43.349 2.78374 400.017
22 1 -48.9461 3.53588 399.984 -48.9461 3.53588 399.984
20 1 -49.826 1.31386 400.829 -49.826 1.31386 400.829
40 1 -37.7352 2.04373 400.077 -37.7352 2.04373 400.077
34 1 -40.9837 3.54536 400.47 -40.9837 3.54536 400.47
17 1 -52.1952 0.56332 400.382 -52.1952 0.56332 400.382
9 1 -57.7767 1.25449 400.293 -57.7767 1.25449 400.293
43 1 -35.3709 2.80611 400.531 -35.3709 2.80611 400.531
12 1 -55.4385 2.06478 400.776 -55.4385 2.06478 400.776
5 1 -60.1619 0.578995 399.831 -60.1619 0.578995 399.831
29 1 -44.2119 0.555006 400.87 -44.2119 0.555006 400.87
853 1 -57.2117 2.71578 414.944 -57.2117 2.71578 414.944
873 1 -45.9883 1.24018 415.072 -45.9883 1.24018 415.072
865 1 -50.0941 0.495755 416.446 -50.0941 0.495755 416.446
1174 1 -37.3621 1.96189 418.011 -37.3621 1.96189 418.011
883 1 -40.3756 0.501035 415.136 -40.3756 0.501035 415.136
863 1 -51.6014 1.97901 415.008 -51.6014 1.97901 415.008
315 1 -35.5963 1.29575 403.821 -35.5963 1.29575 403.821
307 1 -40.5656 2.76104 406.135 -40.5656 2.76104 406.135
1150 1 -51.8254 0.485676 418.322 -51.8254 0.485676 418.322
855 1 -55.7049 1.23283 416.383 -55.7049 1.23283 416.383
310 1 -38.8333 2.77191 404.265 -38.8333 2.77191 404.265
871 1 -46.8547 3.44931 416.01 -46.8547 3.44931 416.01
16 1 -53.057 2.7617 401.238 -53.057 2.7617 401.238
309 1 -39.0579 1.27773 407.571 -39.0579 1.27773 407.571
1156 1 -48.5869 3.43984 417.885 -48.5869 3.43984 417.885
867 1 -49.2281 2.71429 415.509 -49.2281 2.71429 415.509
1159 1 -46.2137 4.17495 418.385 -46.2137 4.17495 418.385
1168 1 -40.6013 3.4359 418.448 -40.6013 3.4359 418.448
1170 1 -39.7351 1.2268 417.511 -39.7351 1.2268 417.511
594 1 -39.9241 3.48669 408.51 -39.9241 3.48669 408.51
37 1 -39.4734 2.04594 401.913 -39.4734 2.04594 401.913
851 1 -58.0769 0.496694 415.883 -58.0769 0.496694 415.883
857 1 -54.8396 3.45187 415.445 -54.8396 3.45187 415.445
592 1 -40.7901 1.26823 409.447 -40.7901 1.26823 409.447
849 1 -58.9421 2.7051 416.821 -58.9421 2.7051 416.821
877 1 -43.615 1.97512 415.573 -43.615 1.97512 415.573
1143 1 -56.5701 3.44124 417.321 -56.5701 3.44124 417.321
1140 1 -58.3006 3.43066 419.198 -58.3006 3.43066 419.198
845 1 -61.314 1.96902 416.321 -61.314 1.96902 416.321
875 1 -44.4813 4.18425 416.51 -44.4813 4.18425 416.51
886 1 -38.6431 0.510409 413.26 -38.6431 0.510409 413.26
891 1 -35.4041 3.46399 412.823 -35.4041 3.46399 412.823
39 1 -37.9716 0.556431 403.314 -37.9716 0.556431 403.314
1177 1 -35.8555 0.478623 419.449 -35.8555 0.478623 419.449
1167 1 -41.4675 1.21753 419.386 -41.4675 1.21753 419.386
8 1 -58.6525 3.5097 401.251 -58.6525 3.5097 401.251
869 1 -47.7209 1.23091 416.947 -47.7209 1.23091 416.947
1136 1 -60.6726 2.6946 418.698 -60.6726 2.6946 418.698
1162 1 -44.7066 2.69154 419.823 -44.7066 2.69154 419.823
15 1 -53.9271 0.562973 402.223 -53.9271 0.562973 402.223
280 1 -55.663 0.551124 404.075 -55.663 0.551124 404.075
277 1 -57.4067 0.553101 405.939 -57.4067 0.553101 405.939
273 1 -59.1387 0.542568 407.811 -59.1387 0.542568 407.811
560 1 -60.8669 0.529497 409.689 -60.8669 0.529497 409.689
557 1 -62.5966 0.518036 411.567 -62.5966 0.518036 411.567
26 1 -45.9471 0.567085 402.753 -45.9471 0.567085 402.753
294 1 -47.6833 0.55914 404.637 -47.6833 0.55914 404.637
291 1 -49.4163 0.545014 406.51 -49.4163 0.545014 406.51
576 1 -51.1491 0.534447 408.383 -51.1491 0.534447 408.383
573 1 -52.8835 0.52664 410.256 -52.8835 0.52664 410.256
570 1 -54.6159 0.51779 412.13 -54.6159 0.51779 412.13
854 1 -56.3466 0.507413 414.006 -56.3466 0.507413 414.006
305 1 -41.4305 0.542896 407.072 -41.4305 0.542896 407.072
589 1 -43.1632 0.533307 408.948 -43.1632 0.533307 408.948
586 1 -44.8959 0.523694 410.823 -44.8959 0.523694 410.823
872 1 -46.6289 0.514357 412.698 -46.6289 0.514357 412.698
599 1 -36.9107 0.519914 411.385 -36.9107 0.519914 411.385
1132 1 -63.0447 1.95865 418.198 -63.0447 1.95865 418.198
4 1 -60.4321 3.53342 403.046 -60.4321 3.53342 403.046
268 1 -62.1512 3.50728 404.926 -62.1512 3.50728 404.926
1152 1 -50.9599 2.7045 417.384 -50.9599 2.7045 417.384
19 1 -50.7027 3.50516 401.757 -50.7027 3.50516 401.757
286 1 -52.4256 3.49879 403.621 -52.4256 3.49879 403.621
282 1 -54.1579 3.49593 405.504 -54.1579 3.49593 405.504
279 1 -55.8974 3.49323 407.376 -55.8974 3.49323 407.376
565 1 -57.6305 3.48519 409.25 -57.6305 3.48519 409.25
563 1 -59.3601 3.47377 411.128 -59.3601 3.47377 411.128
846 1 -61.0901 3.46259 413.006 -61.0901 3.46259 413.006
32 1 -42.7098 3.51552 402.339 -42.7098 3.51552 402.339
300 1 -44.4448 3.51086 404.205 -44.4448 3.51086 404.205
297 1 -46.1781 3.50082 406.075 -46.1781 3.50082 406.075
293 1 -47.9099 3.49041 407.948 -47.9099 3.49041 407.948
578 1 -49.6427 3.48033 409.823 -49.6427 3.48033 409.823
575 1 -51.3763 3.4715 411.695 -51.3763 3.4715 411.695
860 1 -53.1087 3.46218 413.569 -53.1087 3.46218 413.569
591 1 -41.6565 3.47713 410.385 -41.6565 3.47713 410.385
588 1 -43.3891 3.46772 412.26 -43.3891 3.46772 412.26
874 1 -45.1219 3.45848 414.135 -45.1219 3.45848 414.135
10 1 -57.1637 2.02173 402.645 -57.1637 2.02173 402.645
274 1 -58.9191 2.04077 404.494 -58.9191 2.04077 404.494
271 1 -60.6462 2.02631 406.37 -60.6462 2.02631 406.37
558 1 -62.373 2.01192 408.25 -62.373 2.01192 408.25
24 1 -47.4731 2.04337 401.347 -47.4731 2.04337 401.347
21 1 -49.1968 2.03915 403.196 -49.1968 2.03915 403.196
288 1 -50.9211 2.02598 405.074 -50.9211 2.02598 405.074
285 1 -52.6543 2.0158 406.947 -52.6543 2.0158 406.947
571 1 -54.3906 2.00955 408.818 -54.3906 2.00955 408.818
568 1 -56.1233 2.00122 410.691 -56.1233 2.00122 410.691
852 1 -57.8534 1.99053 412.567 -57.8534 1.99053 412.567
848 1 -59.5835 1.97963 414.444 -59.5835 1.97963 414.444
306 1 -41.208 2.03464 403.759 -41.208 2.03464 403.759
302 1 -42.9383 2.02563 405.633 -42.9383 2.02563 405.633
299 1 -44.6702 2.01685 407.51 -44.6702 2.01685 407.51
583 1 -46.4027 2.00713 409.386 -46.4027 2.00713 409.386
581 1 -48.1358 1.99751 411.26 -48.1358 1.99751 411.26
866 1 -49.8691 1.98846 413.134 -49.8691 1.98846 413.134
880 1 -41.8823 1.98438 413.698 -41.8823 1.98438 413.698
312 1 -37.3266 1.28693 405.694 -37.3266 1.28693 405.694
2 1 -61.9522 0.593971 401.611 -61.9522 0.593971 401.611
13 1 -54.7879 2.76792 403.124 -54.7879 2.76792 403.124
278 1 -56.5333 2.76558 405.002 -56.5333 2.76558 405.002
275 1 -58.2734 2.76246 406.871 -58.2734 2.76246 406.871
562 1 -60.0023 2.74956 408.75 -60.0023 2.74956 408.75
559 1 -61.7315 2.73732 410.628 -61.7315 2.73732 410.628
1166 1 -42.3336 3.42659 420.323 -42.3336 3.42659 420.323
889 1 -36.2702 1.24554 413.76 -36.2702 1.24554 413.76
28 1 -45.0846 2.78525 401.855 -45.0846 2.78525 401.855
296 1 -46.8209 2.77559 403.7 -46.8209 2.77559 403.7
292 1 -48.5509 2.76578 405.572 -48.5509 2.76578 405.572
289 1 -50.282 2.7535 407.448 -50.282 2.7535 407.448
574 1 -52.0162 2.74444 409.321 -52.0162 2.74444 409.321
572 1 -53.7501 2.73627 411.193 -53.7501 2.73627 411.193
856 1 -55.4814 2.72646 413.068 -55.4814 2.72646 413.068
303 1 -42.2974 2.75147 408.01 -42.2974 2.75147 408.01
587 1 -44.0297 2.74213 409.885 -44.0297 2.74213 409.885
584 1 -45.7624 2.73269 411.76 -45.7624 2.73269 411.76
870 1 -47.4954 2.72351 413.635 -47.4954 2.72351 413.635
6 1 -59.5517 1.31657 402.123 -59.5517 1.31657 402.123
270 1 -61.2911 1.30558 403.982 -61.2911 1.30558 403.982
267 1 -63.0132 1.28626 405.87 -63.0132 1.28626 405.87
890 1 -35.6298 1.97125 416.136 -35.6298 1.97125 416.136
18 1 -51.5549 1.29097 402.704 -51.5549 1.29097 402.704
284 1 -53.289 1.28667 404.575 -53.289 1.28667 404.575
281 1 -55.0285 1.28141 406.444 -55.0285 1.28141 406.444
567 1 -56.7651 1.27656 408.314 -56.7651 1.27656 408.314
564 1 -58.4955 1.26586 410.189 -58.4955 1.26586 410.189
561 1 -60.2251 1.25438 412.067 -60.2251 1.25438 412.067
844 1 -61.9553 1.2435 413.944 -61.9553 1.2435 413.944
33 1 -41.863 1.30422 401.401 -41.863 1.30422 401.401
30 1 -43.5831 1.29528 403.254 -43.5831 1.29528 403.254
298 1 -45.3116 1.29179 405.134 -45.3116 1.29179 405.134
295 1 -47.0436 1.28217 407.011 -47.0436 1.28217 407.011
580 1 -48.7761 1.27129 408.885 -48.7761 1.27129 408.885
577 1 -50.5096 1.26202 410.759 -50.5096 1.26202 410.759
862 1 -52.2428 1.25321 412.632 -52.2428 1.25321 412.632
590 1 -42.5227 1.25874 411.323 -42.5227 1.25874 411.323
876 1 -44.2555 1.24936 413.198 -44.2555 1.24936 413.198
1163 1 -43.8406 0.482513 418.886 -43.8406 0.482513 418.886
1153 1 -50.3183 3.42988 419.76 -50.3183 3.42988 419.76
311 1 -38.1914 3.49681 406.635 -38.1914 3.49681 406.635
42 1 -36.2506 0.564776 401.462 -36.2506 0.564776 401.462
1135 1 -61.538 0.475677 419.636 -61.538 0.475677 419.636
1171 1 -39.0945 1.95259 419.886 -39.0945 1.95259 419.886
1139 1 -59.1659 1.21169 420.136 -59.1659 1.21169 420.136
601 1 -36.0447 2.73837 410.447 -36.0447 2.73837 410.447
313 1 -36.4572 3.50729 404.758 -36.4572 3.50729 404.758
858 1 -53.9743 1.24337 414.507 -53.9743 1.24337 414.507
868 1 -48.3619 0.505238 414.572 -48.3619 0.505238 414.572
1147 1 -54.1979 4.1773 417.821 -54.1979 4.1773 417.821
843 1 -62.8206 3.45196 414.883 -62.8206 3.45196 414.883
593 1 -40.1498 1.99376 411.823 -40.1498 1.99376 411.823
308 1 -39.699 0.552367 405.194 -39.699 0.552367 405.194
861 1 -52.4671 4.18772 415.946 -52.4671 4.18772 415.946
1158 1 -47.0797 1.95644 419.323 -47.0797 1.95644 419.323
884 1 -39.5093 2.71943 414.198 -39.5093 2.71943 414.198
881 1 -41.2418 2.71012 416.073 -41.2418 2.71012 416.073
885 1 -38.8688 3.44518 416.573 -38.8688 3.44518 416.573
859 1 -53.3326 1.96882 416.883 -53.3326 1.96882 416.883
596 1 -38.4174 2.00322 409.947 -38.4174 2.00322 409.947
879 1 -42.1081 0.491772 417.011 -42.1081 0.491772 417.011
1172 1 -38.2283 4.17096 418.949 -38.2283 4.17096 418.949
1154 1 -49.4527 1.22119 418.822 -49.4527 1.22119 418.822
887 1 -38.0026 1.23612 415.636 -38.0026 1.23612 415.636
597 1 -37.7769 2.72885 412.323 -37.7769 2.72885 412.323
1161 1 -45.3476 1.96591 417.448 -45.3476 1.96591 417.448
1138 1 -59.8073 0.486102 417.759 -59.8073 0.486102 417.759
1149 1 -52.6909 2.69421 419.26 -52.6909 2.69421 419.26
41 1 -37.098 2.77627 402.4 -37.098 2.77627 402.4
888 1 -37.1364 3.45454 414.698 -37.1364 3.45454 414.698
1165 1 -42.9744 2.70088 417.948 -42.9744 2.70088 417.948
1141 1 -57.4353 1.22221 418.259 -57.4353 1.22221 418.259
1145 1 -55.0632 1.95829 418.759 -55.0632 1.95829 418.759
600 1 -36.6856 2.01272 408.071 -36.6856 2.01272 408.071
1148 1 -53.5563 0.475261 420.198 -53.5563 0.475261 420.198
882 1 -41.016 4.20277 412.76 -41.016 4.20277 412.76
1157 1 -47.9455 4.16528 420.26 -47.9455 4.16528 420.26
1144 1 -55.9285 4.16673 419.698 -55.9285 4.16673 419.698
602 1 -35.1784 0.529544 409.509 -35.1784 0.529544 409.509
1131 1 -63.2687 0.465381 421.513 -63.2687 0.465381 421.513
1755 1 -35.6657 2.64661 428.451 -35.6657 2.64661 428.451
1460 1 -40.1859 2.66893 424.137 -40.1859 2.66893 424.137
2308 1 -49.9309 3.33459 437.769 -49.9309 3.33459 437.769
2316 1 -44.9629 1.87176 435.454 -44.9629 1.87176 435.454
2312 1 -47.5588 4.07028 438.269 -47.5588 4.07028 438.269
1464 1 -37.8132 3.4041 424.637 -37.8132 3.4041 424.637
1461 1 -39.3199 0.459934 423.199 -39.3199 0.459934 423.199
2039 1 -38.4876 3.35284 434.578 -38.4876 3.35284 434.578
2613 1 -40.4427 1.84969 439.769 -40.4427 1.84969 439.769
1467 1 -35.4405 4.13929 425.138 -35.4405 4.13929 425.138
2603 1 -46.0521 2.58712 439.707 -46.0521 2.58712 439.707
1443 1 -49.6768 4.15524 422.136 -49.6768 4.15524 422.136
1748 1 -39.545 3.39459 426.513 -39.545 3.39459 426.513
2023 1 -47.335 1.13614 434.955 -47.335 1.13614 434.955
2310 1 -48.4241 1.85146 439.207 -48.4241 1.85146 439.207
1151 1 -51.1838 1.21104 420.698 -51.1838 1.21104 420.698
2303 1 -53.1682 0.380005 438.208 -53.1682 0.380005 438.208
2299 1 -55.5403 4.07165 437.708 -55.5403 4.07165 437.708
2033 1 -41.7253 0.398632 435.016 -41.7253 0.398632 435.016
1433 1 -55.287 0.46477 422.074 -55.287 0.46477 422.074
1430 1 -57.0176 0.454308 423.95 -57.0176 0.454308 423.95
1426 1 -58.7483 0.443899 425.827 -58.7483 0.443899 425.827
1713 1 -60.4789 0.433542 427.703 -60.4789 0.433542 427.703
1710 1 -62.2095 0.42323 429.58 -62.2095 0.42323 429.58
2330 1 -36.3399 2.59529 438.393 -36.3399 2.59529 438.393
1160 1 -45.5726 0.473042 420.761 -45.5726 0.473042 420.761
1447 1 -47.3042 0.463244 422.636 -47.3042 0.463244 422.636
1444 1 -49.0353 0.45317 424.512 -49.0353 0.45317 424.512
1730 1 -50.7662 0.442936 426.388 -50.7662 0.442936 426.388
1727 1 -52.497 0.43263 428.264 -52.497 0.43263 428.264
1724 1 -54.2277 0.422299 430.141 -54.2277 0.422299 430.141
2008 1 -55.9583 0.411967 432.017 -55.9583 0.411967 432.017
2006 1 -57.6888 0.401645 433.894 -57.6888 0.401645 433.894
1458 1 -41.0518 0.450432 425.075 -41.0518 0.450432 425.075
1743 1 -42.7834 0.440732 426.95 -42.7834 0.440732 426.95
1740 1 -44.5146 0.43084 428.826 -44.5146 0.43084 428.826
2026 1 -46.2456 0.420799 430.702 -46.2456 0.420799 430.702
2022 1 -47.9765 0.41066 432.578 -47.9765 0.41066 432.578
2019 1 -49.7072 0.400464 434.455 -49.7072 0.400464 434.455
2309 1 -49.0656 1.12596 436.831 -49.0656 1.12596 436.831
1137 1 -60.0312 3.4202 421.074 -60.0312 3.4202 421.074
1421 1 -61.7619 3.40984 422.951 -61.7619 3.40984 422.951
1439 1 -52.0493 3.41959 421.636 -52.0493 3.41959 421.636
1435 1 -53.7801 3.40919 423.512 -53.7801 3.40919 423.512
1432 1 -55.5108 3.39876 425.388 -55.5108 3.39876 425.388
1719 1 -57.2414 3.38836 427.265 -57.2414 3.38836 427.265
1716 1 -58.972 3.378 429.141 -58.972 3.378 429.141
2001 1 -60.7026 3.36767 431.018 -60.7026 3.36767 431.018
1998 1 -62.4332 3.35737 432.895 -62.4332 3.35737 432.895
2323 1 -40.2186 3.3429 436.454 -40.2186 3.3429 436.454
1453 1 -44.0656 3.41711 422.199 -44.0656 3.41711 422.199
1450 1 -45.7972 3.40736 424.074 -45.7972 3.40736 424.074
1446 1 -47.5284 3.39737 425.95 -47.5284 3.39737 425.95
1732 1 -49.2593 3.38721 427.826 -49.2593 3.38721 427.826
1729 1 -50.9901 3.37696 429.702 -50.9901 3.37696 429.702
2014 1 -52.7208 3.36668 431.579 -52.7208 3.36668 431.579
2011 1 -54.4514 3.35638 433.455 -54.4514 3.35638 433.455
1745 1 -41.2765 3.3849 428.388 -41.2765 3.3849 428.388
1742 1 -43.0078 3.37504 430.264 -43.0078 3.37504 430.264
2028 1 -44.7388 3.36504 432.14 -44.7388 3.36504 432.14
2025 1 -46.4697 3.35494 434.016 -46.4697 3.35494 434.016
1427 1 -58.5244 1.93726 422.512 -58.5244 1.93726 422.512
1424 1 -60.2551 1.92687 424.389 -60.2551 1.92687 424.389
1711 1 -61.9858 1.91654 426.266 -61.9858 1.91654 426.266
2322 1 -41.084 1.12416 437.392 -41.084 1.12416 437.392
1750 1 -38.0382 1.91133 427.951 -38.0382 1.91133 427.951
1155 1 -48.8112 1.94658 421.198 -48.8112 1.94658 421.198
1441 1 -50.5423 1.93641 423.074 -50.5423 1.93641 423.074
1438 1 -52.2732 1.92609 424.95 -52.2732 1.92609 424.95
1725 1 -54.0039 1.91572 426.826 -54.0039 1.91572 426.826
1722 1 -55.7346 1.90535 428.703 -55.7346 1.90535 428.703
1718 1 -57.4652 1.89499 430.579 -57.4652 1.89499 430.579
2003 1 -59.1957 1.88466 432.456 -59.1957 1.88466 432.456
2000 1 -60.9263 1.87435 434.332 -60.9263 1.87435 434.332
1459 1 -40.8267 1.94325 421.761 -40.8267 1.94325 421.761
1455 1 -42.5587 1.93376 423.637 -42.5587 1.93376 423.637
1452 1 -44.2902 1.92404 425.512 -44.2902 1.92404 425.512
1737 1 -46.0215 1.9141 427.388 -46.0215 1.9141 427.388
1735 1 -47.7525 1.90401 429.264 -47.7525 1.90401 429.264
2020 1 -49.4833 1.89382 431.14 -49.4833 1.89382 431.14
2017 1 -51.214 1.88358 433.017 -51.214 1.88358 433.017
2034 1 -41.501 1.8918 431.702 -41.501 1.8918 431.702
2031 1 -43.2321 1.88183 433.578 -43.2321 1.88183 433.578
2029 1 -44.0975 4.09053 434.516 -44.0975 4.09053 434.516
1146 1 -54.4216 2.68374 421.136 -54.4216 2.68374 421.136
1431 1 -56.1523 2.67326 423.012 -56.1523 2.67326 423.012
1428 1 -57.883 2.66282 424.889 -57.883 2.66282 424.889
1715 1 -59.6136 2.65244 426.765 -59.6136 2.65244 426.765
1712 1 -61.3442 2.64211 428.642 -61.3442 2.64211 428.642
1708 1 -63.0748 2.63182 430.518 -63.0748 2.63182 430.518
1747 1 -39.7698 1.90164 429.826 -39.7698 1.90164 429.826
1449 1 -46.4384 2.68191 421.698 -46.4384 2.68191 421.698
1445 1 -48.1698 2.67196 423.574 -48.1698 2.67196 423.574
1442 1 -49.9008 2.66179 425.45 -49.9008 2.66179 425.45
1728 1 -51.6316 2.65152 427.326 -51.6316 2.65152 427.326
1726 1 -53.3624 2.64119 429.203 -53.3624 2.64119 429.203
2010 1 -55.093 2.63086 431.079 -55.093 2.63086 431.079
2007 1 -56.8236 2.62053 432.956 -56.8236 2.62053 432.956
1456 1 -41.9176 2.65933 426.012 -41.9176 2.65933 426.012
1741 1 -43.649 2.64953 427.888 -43.649 2.64953 427.888
1738 1 -45.3802 2.63956 429.764 -45.3802 2.63956 429.764
2024 1 -47.1111 2.62947 431.64 -47.1111 2.62947 431.64
2021 1 -48.8418 2.61929 433.517 -48.8418 2.61929 433.517
2035 1 -40.8598 2.61735 434.078 -40.8598 2.61735 434.078
1754 1 -36.3065 1.92085 426.075 -36.3065 1.92085 426.075
1423 1 -60.8966 1.20128 422.013 -60.8966 1.20128 422.013
1420 1 -62.6273 1.19097 423.889 -62.6273 1.19097 423.889
2044 1 -35.2498 1.8795 434.141 -35.2498 1.8795 434.141
1437 1 -52.9147 1.20067 422.574 -52.9147 1.20067 422.574
1434 1 -54.6454 1.19025 424.45 -54.6454 1.19025 424.45
1721 1 -56.3761 1.17983 426.327 -56.3761 1.17983 426.327
1717 1 -58.1067 1.16945 428.203 -58.1067 1.16945 428.203
1714 1 -59.8373 1.1591 430.08 -59.8373 1.1591 430.08
1999 1 -61.5679 1.14879 431.956 -61.5679 1.14879 431.956
1997 1 -63.2985 1.1385 433.833 -63.2985 1.1385 433.833
1164 1 -43.1997 1.20816 421.261 -43.1997 1.20816 421.261
1451 1 -44.9314 1.19855 423.136 -44.9314 1.19855 423.136
1448 1 -46.6628 1.18866 425.012 -46.6628 1.18866 425.012
1734 1 -48.3939 1.17858 426.888 -48.3939 1.17858 426.888
1731 1 -50.1248 1.16837 428.764 -50.1248 1.16837 428.764
2016 1 -51.8555 1.1581 430.641 -51.8555 1.1581 430.641
2012 1 -53.5861 1.1478 432.517 -53.5861 1.1478 432.517
2009 1 -55.3167 1.1375 434.393 -55.3167 1.1375 434.393
1746 1 -40.4108 1.17604 427.451 -40.4108 1.17604 427.451
1744 1 -42.1422 1.16627 429.326 -42.1422 1.16627 429.326
2030 1 -43.8733 1.15633 431.202 -43.8733 1.15633 431.202
2027 1 -45.6043 1.14627 433.078 -45.6043 1.14627 433.078
2325 1 -39.3531 1.13416 435.516 -39.3531 1.13416 435.516
1749 1 -38.904 4.12023 428.889 -38.904 4.12023 428.889
1425 1 -59.3898 4.14578 423.451 -59.3898 4.14578 423.451
1736 1 -46.887 4.1228 428.326 -46.887 4.1228 428.326
1142 1 -56.7938 1.94774 420.636 -56.7938 1.94774 420.636
1720 1 -56.5999 4.11389 429.641 -56.5999 4.11389 429.641
2005 1 -58.3305 4.10355 431.518 -58.3305 4.10355 431.518
2002 1 -60.061 4.09322 433.394 -60.061 4.09322 433.394
1169 1 -39.9606 4.16166 420.824 -39.9606 4.16166 420.824
1723 1 -54.8692 4.12426 427.765 -54.8692 4.12426 427.765
1440 1 -51.4078 4.14498 424.012 -51.4078 4.14498 424.012
1733 1 -48.6179 4.11265 430.202 -48.6179 4.11265 430.202
2018 1 -50.3487 4.10243 432.079 -50.3487 4.10243 432.079
2015 1 -52.0793 4.09218 433.955 -52.0793 4.09218 433.955
2036 1 -40.6354 4.11047 430.764 -40.6354 4.11047 430.764
2032 1 -42.3666 4.10056 432.64 -42.3666 4.10056 432.64
2326 1 -38.7119 1.85973 437.892 -38.7119 1.85973 437.892
1752 1 -37.1724 4.12983 427.013 -37.1724 4.12983 427.013
1457 1 -41.6927 4.15226 422.699 -41.6927 4.15226 422.699
2043 1 -35.8907 1.1538 431.765 -35.8907 1.1538 431.765
2286 1 -62.6567 1.86406 436.209 -62.6567 1.86406 436.209
2319 1 -42.8147 1.11409 439.269 -42.8147 1.11409 439.269
1436 1 -53.1385 4.13463 425.888 -53.1385 4.13463 425.888
1422 1 -61.1204 4.13542 425.327 -61.1204 4.13542 425.327
1173 1 -37.5878 0.469299 421.324 -37.5878 0.469299 421.324
2293 1 -58.7776 1.11693 438.147 -58.7776 1.11693 438.147
2289 1 -61.1498 0.381051 437.647 -61.1498 0.381051 437.647
2295 1 -57.2707 4.06139 439.584 -57.2707 4.06139 439.584
1465 1 -36.9471 1.19508 423.7 -36.9471 1.19508 423.7
2315 1 -45.1868 0.378469 438.769 -45.1868 0.378469 438.769
2331 1 -36.1154 4.08833 435.079 -36.1154 4.08833 435.079
2297 1 -56.4055 1.85279 438.646 -56.4055 1.85279 438.646
2324 1 -39.5774 4.06845 438.831 -39.5774 4.06845 438.831
2306 1 -50.7961 1.11576 438.707 -50.7961 1.11576 438.707
2285 1 -62.8801 0.370781 439.523 -62.8801 0.370781 439.523
1462 1 -38.6791 1.18564 425.575 -38.6791 1.18564 425.575
1751 1 -37.3973 2.637 430.327 -37.3973 2.637 430.327
2329 1 -36.981 1.86967 436.017 -36.981 1.86967 436.017
2042 1 -36.7564 3.36267 432.703 -36.7564 3.36267 432.703
2041 1 -37.622 1.14405 433.64 -37.622 1.14405 433.64
2593 1 -51.6614 3.32439 439.646 -51.6614 3.32439 439.646
2328 1 -37.2053 0.376578 439.331 -37.2053 0.376578 439.331
2301 1 -54.0334 2.58862 439.146 -54.0334 2.58862 439.146
1466 1 -36.0811 3.41349 422.762 -36.0811 3.41349 422.762
2298 1 -56.1819 3.34608 435.332 -56.1819 3.34608 435.332
2321 1 -41.9494 3.33286 438.331 -41.9494 3.33286 438.331
2313 1 -46.6936 1.86163 437.331 -46.6936 1.86163 437.331
2294 1 -57.9124 3.33579 437.208 -57.9124 3.33579 437.208
2304 1 -52.303 2.59885 437.269 -52.303 2.59885 437.269
2300 1 -54.6751 1.86305 436.77 -54.6751 1.86305 436.77
2290 1 -60.2845 2.59992 436.709 -60.2845 2.59992 436.709
2318 1 -43.4561 0.388583 436.892 -43.4561 0.388583 436.892
2327 1 -37.8465 4.07844 436.954 -37.8465 4.07844 436.954
2004 1 -58.5541 2.61022 434.832 -58.5541 2.61022 434.832
2013 1 -52.9446 1.87332 434.893 -52.9446 1.87332 434.893
2288 1 -61.7915 4.08293 435.271 -61.7915 4.08293 435.271
2037 1 -39.9943 0.408586 433.14 -39.9943 0.408586 433.14
1739 1 -45.1559 4.13282 426.45 -45.1559 4.13282 426.45
1753 1 -36.5316 0.428096 429.389 -36.5316 0.428096 429.389
2307 1 -50.5725 2.60908 435.393 -50.5725 2.60908 435.393
2314 1 -45.8282 4.08043 436.393 -45.8282 4.08043 436.393
2040 1 -38.2631 0.418414 431.264 -38.2631 0.418414 431.264
2320 1 -42.5907 2.60734 435.954 -42.5907 2.60734 435.954
2292 1 -59.4193 0.391339 435.77 -59.4193 0.391339 435.77
2311 1 -48.2003 3.34478 435.893 -48.2003 3.34478 435.893
2302 1 -53.8098 4.08191 435.831 -53.8098 4.08191 435.831
2296 1 -57.0472 1.12721 436.27 -57.0472 1.12721 436.27
1463 1 -38.4539 2.67835 422.262 -38.4539 2.67835 422.262
2287 1 -62.015 2.58964 438.585 -62.015 2.58964 438.585
2291 1 -59.6428 3.32552 439.085 -59.6428 3.32552 439.085
2317 1 -44.3215 2.59726 437.831 -44.3215 2.59726 437.831
2038 1 -39.1287 2.62724 432.202 -39.1287 2.62724 432.202
2305 1 -51.4377 0.390239 436.331 -51.4377 0.390239 436.331
2332 1 -35.4744 0.386528 437.455 -35.4744 0.386528 437.455
1709 1 -62.8511 4.12513 427.204 -62.8511 4.12513 427.204
1468 1 -35.215 1.20444 421.825 -35.215 1.20444 421.825
1454 1 -43.4245 4.14265 424.574 -43.4245 4.14265 424.574
1429 1 -57.6591 4.15622 421.574 -57.6591 4.15622 421.574
1133 1 -62.4033 2.68424 420.575 -62.4033 2.68424 420.575
1175 1 -36.7216 2.68769 420.387 -36.7216 2.68769 420.387
2616 1 -38.2947 1.09208 443.583 -38.2947 1.09208 443.583
2901 1 -40.0251 1.08195 445.459 -40.0251 1.08195 445.459
2907 1 -36.7881 4.0364 445.021 -36.7881 4.0364 445.021
3194 1 -37.8768 0.324316 449.274 -37.8768 0.324316 449.274
2587 1 -54.8986 0.369778 440.084 -54.8986 0.369778 440.084
2597 1 -49.2893 4.0601 440.145 -49.2893 4.0601 440.145
2584 1 -56.6289 0.359566 441.961 -56.6289 0.359566 441.961
2581 1 -58.3592 0.349373 443.837 -58.3592 0.349373 443.837
2868 1 -60.0894 0.339194 445.714 -60.0894 0.339194 445.714
2865 1 -61.8195 0.329018 447.59 -61.8195 0.329018 447.59
2601 1 -46.9173 0.368318 440.645 -46.9173 0.368318 440.645
2598 1 -48.6477 0.358156 442.522 -48.6477 0.358156 442.522
2885 1 -50.378 0.348007 444.398 -50.378 0.348007 444.398
2882 1 -52.1082 0.337895 446.275 -52.1082 0.337895 446.275
2879 1 -53.8384 0.327837 448.151 -53.8384 0.327837 448.151
2612 1 -40.6666 0.356437 443.083 -40.6666 0.356437 443.083
2898 1 -42.397 0.346297 444.959 -42.397 0.346297 444.959
2895 1 -44.1272 0.336143 446.836 -44.1272 0.336143 446.836
3180 1 -45.8573 0.326005 448.712 -45.8573 0.326005 448.712
2576 1 -61.3731 3.31526 440.961 -61.3731 3.31526 440.961
2574 1 -63.1034 3.30501 442.838 -63.1034 3.30501 442.838
2589 1 -53.3917 3.31419 441.522 -53.3917 3.31419 441.522
2586 1 -55.122 3.30402 443.399 -55.122 3.30402 443.399
2874 1 -56.8523 3.29388 445.275 -56.8523 3.29388 445.275
2871 1 -58.5824 3.28377 447.152 -58.5824 3.28377 447.152
3155 1 -60.3125 3.27367 449.028 -60.3125 3.27367 449.028
2607 1 -43.68 3.32276 440.207 -43.68 3.32276 440.207
2604 1 -45.4105 3.31261 442.083 -45.4105 3.31261 442.083
2600 1 -47.1409 3.30246 443.96 -47.1409 3.30246 443.96
2887 1 -48.8711 3.29232 445.836 -48.8711 3.29232 445.836
2884 1 -50.6013 3.28221 447.713 -50.6013 3.28221 447.713
3168 1 -52.3315 3.27216 449.589 -52.3315 3.27216 449.589
2900 1 -40.8902 3.2906 446.397 -40.8902 3.2906 446.397
2897 1 -42.6204 3.28045 448.274 -42.6204 3.28045 448.274
2582 1 -58.1358 1.84254 440.523 -58.1358 1.84254 440.523
2579 1 -59.8661 1.83231 442.399 -59.8661 1.83231 442.399
2866 1 -61.5964 1.82208 444.276 -61.5964 1.82208 444.276
2578 1 -60.508 1.10666 440.023 -60.508 1.10666 440.023
2595 1 -50.1545 1.84129 441.084 -50.1545 1.84129 441.084
2592 1 -51.8849 1.83112 442.96 -51.8849 1.83112 442.96
2880 1 -53.6151 1.82098 444.837 -53.6151 1.82098 444.837
2877 1 -55.3453 1.81089 446.713 -55.3453 1.81089 446.713
2873 1 -57.0755 1.80085 448.59 -57.0755 1.80085 448.59
2609 1 -42.1733 1.83959 441.645 -42.1733 1.83959 441.645
2606 1 -43.9037 1.82945 443.521 -43.9037 1.82945 443.521
2892 1 -45.634 1.8193 445.398 -45.634 1.8193 445.398
2890 1 -47.3642 1.80916 447.274 -47.3642 1.80916 447.274
3174 1 -49.0944 1.79906 449.151 -49.0944 1.79906 449.151
2618 1 -37.4294 3.31085 442.645 -37.4294 3.31085 442.645
2585 1 -55.7638 2.5784 441.022 -55.7638 2.5784 441.022
2583 1 -57.4941 2.56819 442.899 -57.4941 2.56819 442.899
2870 1 -59.2243 2.55801 444.776 -59.2243 2.55801 444.776
2867 1 -60.9545 2.54783 446.652 -60.9545 2.54783 446.652
2863 1 -62.6846 2.53765 448.528 -62.6846 2.53765 448.528
2599 1 -47.7825 2.57696 441.583 -47.7825 2.57696 441.583
2596 1 -49.5129 2.5668 443.46 -49.5129 2.5668 443.46
2883 1 -51.2431 2.55667 445.336 -51.2431 2.55667 445.336
2881 1 -52.9733 2.54658 447.213 -52.9733 2.54658 447.213
3164 1 -54.7035 2.53656 449.09 -54.7035 2.53656 449.09
2610 1 -41.5318 2.5651 444.021 -41.5318 2.5651 444.021
2896 1 -43.2621 2.55495 445.898 -43.2621 2.55495 445.898
2893 1 -44.9923 2.5448 447.774 -44.9923 2.5448 447.774
3178 1 -46.7224 2.53468 449.65 -46.7224 2.53468 449.65
2575 1 -62.2383 1.0964 441.9 -62.2383 1.0964 441.9
2591 1 -52.5266 1.10556 440.584 -52.5266 1.10556 440.584
2588 1 -54.2569 1.09538 442.46 -54.2569 1.09538 442.46
2876 1 -55.9871 1.08522 444.337 -55.9871 1.08522 444.337
2872 1 -57.7174 1.07509 446.214 -57.7174 1.07509 446.214
2869 1 -59.4475 1.06499 448.09 -59.4475 1.06499 448.09
2605 1 -44.5453 1.10396 441.145 -44.5453 1.10396 441.145
2602 1 -46.2757 1.09381 443.021 -46.2757 1.09381 443.021
2889 1 -48.006 1.08366 444.898 -48.006 1.08366 444.898
2886 1 -49.7362 1.07353 446.774 -49.7362 1.07353 446.774
3170 1 -51.4664 1.06345 448.651 -51.4664 1.06345 448.651
2899 1 -41.7553 1.0718 447.336 -41.7553 1.0718 447.336
3184 1 -43.4854 1.06165 449.212 -43.4854 1.06165 449.212
2580 1 -59.001 4.05115 441.461 -59.001 4.05115 441.461
2577 1 -60.7313 4.04092 443.338 -60.7313 4.04092 443.338
2864 1 -62.4615 4.0307 445.214 -62.4615 4.0307 445.214
2862 1 -63.3266 1.81186 446.152 -63.3266 1.81186 446.152
2594 1 -51.0197 4.04993 442.022 -51.0197 4.04993 442.022
2590 1 -52.75 4.03977 443.898 -52.75 4.03977 443.898
2878 1 -54.4802 4.02966 445.775 -54.4802 4.02966 445.775
2875 1 -56.2104 4.01959 447.652 -56.2104 4.01959 447.652
3159 1 -57.9405 4.00957 449.528 -57.9405 4.00957 449.528
2611 1 -41.308 4.05838 440.707 -41.308 4.05838 440.707
2608 1 -43.0385 4.04825 442.583 -43.0385 4.04825 442.583
2894 1 -44.7689 4.0381 444.459 -44.7689 4.0381 444.459
2891 1 -46.4991 4.02795 446.336 -46.4991 4.02795 446.336
2888 1 -48.2293 4.01783 448.212 -48.2293 4.01783 448.212
2904 1 -38.5184 4.02626 446.897 -38.5184 4.02626 446.897
2621 1 -35.6987 3.3209 440.769 -35.6987 3.3209 440.769
2617 1 -38.0707 2.58529 440.269 -38.0707 2.58529 440.269
2614 1 -39.8013 2.57522 442.145 -39.8013 2.57522 442.145
2908 1 -36.1467 0.334491 447.397 -36.1467 0.334491 447.397
2619 1 -36.5641 1.10216 441.707 -36.5641 1.10216 441.707
2906 1 -37.0118 2.54313 448.336 -37.0118 2.54313 448.336
2905 1 -37.6533 1.81761 445.959 -37.6533 1.81761 445.959
2620 1 -35.9228 1.82773 444.083 -35.9228 1.82773 444.083
3190 1 -40.2486 4.0161 448.774 -40.2486 4.0161 448.774
2902 1 -39.3835 1.80746 447.836 -39.3835 1.80746 447.836
2903 1 -39.1599 3.30074 444.521 -39.1599 3.30074 444.521
2615 1 -38.9361 0.366539 441.207 -38.9361 0.366539 441.207
2909 1 -35.2815 2.55329 446.459 -35.2815 2.55329 446.459
14 1 -54.5853 4.29465 399.941 -54.5853 4.29465 399.941
7 1 -59.2593 2.79382 399.033 -59.2593 2.79382 399.033
25 1 -46.5944 4.28647 400.415 -46.5944 4.28647 400.415
38 1 -38.5995 4.24217 400.93 -38.5995 4.24217 400.93
23 1 -48.3275 4.26013 402.284 -48.3275 4.26013 402.284
287 1 -51.7879 4.23241 406.007 -51.7879 4.23241 406.007
878 1 -42.7486 4.19345 414.635 -42.7486 4.19345 414.635
579 1 -49.0025 4.20674 412.197 -49.0025 4.20674 412.197
585 1 -45.5364 4.22581 408.448 -45.5364 4.22581 408.448
290 1 -50.0595 4.24325 404.132 -50.0595 4.24325 404.132
11 1 -56.3027 4.24274 401.724 -56.3027 4.24274 401.724
595 1 -39.2836 4.21222 410.885 -39.2836 4.21222 410.885
1134 1 -62.1793 4.17753 417.26 -62.1793 4.17753 417.26
283 1 -53.5226 4.22593 407.88 -53.5226 4.22593 407.88
582 1 -47.2692 4.21599 410.323 -47.2692 4.21599 410.323
276 1 -58.0466 4.25247 403.578 -58.0466 4.25247 403.578
569 1 -55.2573 4.21944 409.753 -55.2573 4.21944 409.753
847 1 -60.4487 4.18801 415.383 -60.4487 4.18801 415.383
556 1 -63.2379 4.21991 409.19 -63.2379 4.21991 409.19
272 1 -59.7854 4.24868 405.432 -59.7854 4.24868 405.432
3 1 -61.0818 2.80562 400.716 -61.0818 2.80562 400.716
35 1 -40.3349 4.25542 402.811 -40.3349 4.25542 402.811
598 1 -37.5512 4.22187 409.01 -37.5512 4.22187 409.01
850 1 -58.7184 4.19877 413.506 -58.7184 4.19877 413.506