ITEM: TIMESTEP
0
ITEM: NUMBER OF ATOMS
4630
ITEM: BOX BOUNDS xy xz yz pp pp pp
-6.4340988501799998e+01 1.0736002035000000e+02 0.0000000000000000e+00
0.0000000000000000e+00 4.4274527100805940e+00 0.0000000000000000e+00
3.8000000000000000e+02 5.0000000000000000e+02 0.0000000000000000e+00
ITEM: ATOMS id type x y z xu yu zu
27 1 -46.3642 1.90978 399.819 -46.3642 1.90978 399.819
36 1 -40.6988 1.1696 399.879 -40.6988 1.1696 399.879
31 1 -43.9611 2.60934 400.257 -43.9611 2.60934 400.257
22 1 -49.5981 3.36267 400.221 -49.5981 3.36267 400.221
20 1 -50.4965 1.13957 401.058 -50.4965 1.13957 401.058
40 1 -38.2975 1.87019 400.319 -38.2975 1.87019 400.319
34 1 -41.5737 3.36782 400.704 -41.5737 3.36782 400.704
17 1 -52.8879 0.390599 400.617 -52.8879 0.390599 400.617
9 1 -58.5241 1.08537 400.524 -58.5241 1.08537 400.524
43 1 -35.9106 2.62948 400.767 -35.9106 2.62948 400.767
12 1 -56.161 1.88865 401 -56.161 1.88865 401
5 1 -60.9198 0.39709 400.061 -60.9198 0.39709 400.061
29 1 -44.8317 0.380863 401.105 -44.8317 0.380863 401.105
853 1 -57.9669 2.61111 415.08 -57.9669 2.61111 415.08
873 1 -46.6349 1.13619 415.216 -46.6349 1.13619 415.216
865 1 -50.7816 0.39874 416.578 -50.7816 0.39874 416.578
1174 1 -37.9276 1.8726 418.14 -37.9276 1.8726 418.14
883 1 -40.9682 0.3974 415.282 -40.9682 0.3974 415.282
863 1 -52.3024 1.87476 415.147 -52.3024 1.87476 415.147
315 1 -36.1389 1.13711 404.036 -36.1389 1.13711 404.036
307 1 -41.1543 2.6128 406.337 -41.1543 2.6128 406.337
1150 1 -52.531 0.398099 418.44 -52.531 0.398099 418.44
855 1 -56.4465 1.13542 416.51 -56.4465 1.13542 416.51
310 1 -39.4048 2.61545 404.48 -39.4048 2.61545 404.48
871 1 -47.5104 3.35005 416.147 -47.5104 3.35005 416.147
16 1 -53.7596 2.58905 401.465 -53.7596 2.58905 401.465
309 1 -39.6334 1.13682 407.765 -39.6334 1.13682 407.765
1156 1 -49.2607 3.35006 418.008 -49.2607 3.35006 418.008
867 1 -49.9065 2.61253 415.647 -49.9065 2.61253 415.647
1159 1 -46.8649 4.08764 418.507 -46.8649 4.08764 418.507
1168 1 -41.1981 3.34878 418.574 -41.1981 3.34878 418.574
1170 1 -40.323 1.13501 417.642 -40.323 1.13501 417.642
594 1 -40.5083 3.35022 408.698 -40.5083 3.35022 408.698
37 1 -40.05 1.87892 402.145 -40.05 1.87892 402.145
851 1 -58.8409 0.396604 416.012 -58.8409 0.396604 416.012
857 1 -55.5723 3.34982 415.579 -55.5723 3.34982 415.579
592 1 -41.383 1.13635 409.629 -41.383 1.13635 409.629
849 1 -59.7151 2.60963 416.944 -59.7151 2.60963 416.944
877 1 -44.239 1.87364 415.715 -44.239 1.87364 415.715
1143 1 -57.3207 3.34846 417.442 -57.3207 3.34846 417.442
1140 1 -59.0692 3.3472 419.306 -59.0692 3.3472 419.306
845 1 -62.1093 1.87077 416.445 -62.1093 1.87077 416.445
875 1 -45.1144 4.08748 416.646 -45.1144 4.08748 416.646
886 1 -39.218 0.397527 413.419 -39.218 0.397527 413.419
891 1 -35.9482 3.34922 412.985 -35.9482 3.34922 412.985
39 1 -38.5345 0.394423 403.532 -38.5345 0.394423 403.532
1177 1 -36.4072 0.396481 419.57 -36.4072 0.396481 419.57
1167 1 -42.0733 1.13511 419.505 -42.0733 1.13511 419.505
8 1 -59.4034 3.33879 401.475 -59.4034 3.33879 401.475
869 1 -48.3857 1.13639 417.077 -48.3857 1.13639 417.077
1136 1 -61.4636 2.60845 418.808 -61.4636 2.60845 418.808
1162 1 -45.3442 2.61142 419.937 -45.3442 2.61142 419.937
15 1 -54.6369 0.397044 402.446 -54.6369 0.397044 402.446
280 1 -56.3918 0.392608 404.28 -56.3918 0.392608 404.28
277 1 -58.1551 0.404053 406.132 -58.1551 0.404053 406.132
273 1 -59.9072 0.402743 407.988 -59.9072 0.402743 407.988
560 1 -61.6533 0.398111 409.854 -61.6533 0.398111 409.854
557 1 -63.4007 0.395577 411.72 -63.4007 0.395577 411.72
26 1 -46.5828 0.402667 402.974 -46.5828 0.402667 402.974
294 1 -48.337 0.403413 404.845 -48.337 0.403413 404.845
291 1 -50.0883 0.397701 406.704 -50.0883 0.397701 406.704
576 1 -51.8394 0.396564 408.565 -51.8394 0.396564 408.565
573 1 -53.5926 0.398467 410.425 -53.5926 0.398467 410.425
570 1 -55.3439 0.399239 412.285 -55.3439 0.399239 412.285
854 1 -57.0928 0.398155 414.148 -57.0928 0.398155 414.148
305 1 -42.0277 0.39923 407.269 -42.0277 0.39923 407.269
589 1 -43.7782 0.398843 409.132 -43.7782 0.398843 409.132
586 1 -45.5288 0.39844 410.994 -45.5288 0.39844 410.994
872 1 -47.2798 0.398402 412.856 -47.2798 0.398402 412.856
599 1 -37.4682 0.397929 411.556 -37.4682 0.397929 411.556
1132 1 -63.858 1.8698 418.31 -63.858 1.8698 418.31
4 1 -61.2069 3.36972 403.254 -61.2069 3.36972 403.254
268 1 -62.9466 3.3514 405.116 -62.9466 3.3514 405.116
1152 1 -51.6564 2.61221 417.509 -51.6564 2.61221 417.509
19 1 -51.3821 3.33394 401.975 -51.3821 3.33394 401.975
286 1 -53.1224 3.33793 403.83 -53.1224 3.33793 403.83
282 1 -54.8737 3.3449 405.701 -54.8737 3.3449 405.701
279 1 -56.6328 3.35123 407.561 -56.6328 3.35123 407.561
565 1 -58.3855 3.35259 409.42 -58.3855 3.35259 409.42
563 1 -60.1332 3.34995 411.285 -60.1332 3.34995 411.285
846 1 -61.8809 3.34768 413.15 -61.8809 3.34768 413.15
32 1 -43.3146 3.34775 402.565 -43.3146 3.34775 402.565
300 1 -45.0674 3.35319 404.419 -45.0674 3.35319 404.419
297 1 -46.8194 3.35195 406.274 -46.8194 3.35195 406.274
293 1 -48.5691 3.3506 408.135 -48.5691 3.3506 408.135
578 1 -50.32 3.34976 409.996 -50.32 3.34976 409.996
575 1 -52.0723 3.35047 411.856 -52.0723 3.35047 411.856
860 1 -53.8232 3.35073 413.717 -53.8232 3.35073 413.717
591 1 -42.2583 3.34982 410.56 -42.2583 3.34982 410.56
588 1 -44.0087 3.34969 412.423 -44.0087 3.34969 412.423
874 1 -45.7595 3.34978 414.285 -45.7595 3.34978 414.285
10 1 -57.9033 1.85551 402.86 -57.9033 1.85551 402.86
274 1 -59.6806 1.88429 404.694 -59.6806 1.88429 404.694
271 1 -61.4282 1.8788 406.554 -61.4282 1.8788 406.554
558 1 -63.1725 1.87279 408.422 -63.1725 1.87279 408.422
24 1 -48.1209 1.8677 401.57 -48.1209 1.8677 401.57
21 1 -49.8627 1.87576 403.409 -49.8627 1.87576 403.409
288 1 -51.6051 1.87173 405.276 -51.6051 1.87173 405.276
285 1 -53.3574 1.8712 407.137 -53.3574 1.8712 407.137
571 1 -55.1129 1.87443 408.994 -55.1129 1.87443 408.994
568 1 -56.8647 1.87566 410.853 -56.8647 1.87566 410.853
852 1 -58.6131 1.87405 412.717 -58.6131 1.87405 412.717
848 1 -60.361 1.87218 414.581 -60.361 1.87218 414.581
306 1 -41.8015 1.87471 403.975 -41.8015 1.87471 403.975
302 1 -43.5484 1.87461 405.837 -43.5484 1.87461 405.837
299 1 -45.2984 1.87524 407.701 -45.2984 1.87524 407.701
583 1 -47.0489 1.87466 409.565 -47.0489 1.87466 409.565
581 1 -48.8001 1.87425 411.426 -48.8001 1.87425 411.426
866 1 -50.5517 1.87467 413.286 -50.5517 1.87467 413.286
880 1 -42.4884 1.87355 413.852 -42.4884 1.87355 413.852
312 1 -37.8852 1.13706 405.899 -37.8852 1.13706 405.899
2 1 -62.7406 0.416286 401.82 -62.7406 0.416286 401.82
13 1 -55.5076 2.60611 403.336 -55.5076 2.60611 403.336
278 1 -57.2711 2.61158 405.202 -57.2711 2.61158 405.202
275 1 -59.0323 2.61818 407.056 -59.0323 2.61818 407.056
562 1 -60.7799 2.61394 408.92 -60.7799 2.61394 408.92
559 1 -62.5266 2.61034 410.787 -62.5266 2.61034 410.787
1166 1 -42.9484 3.3489 420.436 -42.9484 3.3489 420.436
889 1 -36.8229 1.13529 413.917 -36.8229 1.13529 413.917
28 1 -45.7111 2.61666 402.086 -45.7111 2.61666 402.086
296 1 -47.466 2.61482 403.913 -47.466 2.61482 403.913
292 1 -49.2139 2.61422 405.773 -49.2139 2.61422 405.773
289 1 -50.963 2.61098 407.636 -50.963 2.61098 407.636
574 1 -52.7159 2.61146 409.496 -52.7159 2.61146 409.496
572 1 -54.4687 2.61295 411.355 -54.4687 2.61295 411.355
856 1 -56.2185 2.6126 413.216 -56.2185 2.6126 413.216
303 1 -42.9035 2.61231 408.2 -42.9035 2.61231 408.2
587 1 -44.6536 2.61226 410.062 -44.6536 2.61226 410.062
584 1 -46.4043 2.61208 411.925 -46.4043 2.61208 411.925
870 1 -48.1555 2.61226 413.786 -48.1555 2.61226 413.786
6 1 -60.314 1.1477 402.342 -60.314 1.1477 402.342
270 1 -62.0778 1.14619 404.178 -62.0778 1.14619 404.178
267 1 -63.8169 1.13499 406.055 -63.8169 1.13499 406.055
890 1 -36.1776 1.87276 416.277 -36.1776 1.87276 416.277
18 1 -52.2419 1.12574 402.923 -52.2419 1.12574 402.923
284 1 -53.9954 1.1315 404.781 -53.9954 1.1315 404.781
281 1 -55.7541 1.13467 406.635 -55.7541 1.13467 406.635
567 1 -57.5105 1.13938 408.491 -57.5105 1.13938 408.491
564 1 -59.2597 1.13769 410.353 -59.2597 1.13769 410.353
561 1 -61.007 1.13497 412.218 -61.007 1.13497 412.218
844 1 -62.755 1.13316 414.083 -62.755 1.13316 414.083
33 1 -42.461 1.13063 401.626 -42.461 1.13063 401.626
30 1 -44.1966 1.132 403.472 -44.1966 1.132 403.472
298 1 -45.9435 1.1386 405.34 -45.9435 1.1386 405.34
295 1 -47.6937 1.13794 407.205 -47.6937 1.13794 407.205
580 1 -49.4443 1.136 409.066 -49.4443 1.136 409.066
577 1 -51.1962 1.13616 410.926 -51.1962 1.13616 410.926
862 1 -52.948 1.13698 412.786 -52.948 1.13698 412.786
590 1 -43.1334 1.13608 411.492 -43.1334 1.13608 411.492
876 1 -44.884 1.13598 413.354 -44.884 1.13598 413.354
1163 1 -44.469 0.397654 419.006 -44.469 0.397654 419.006
1153 1 -51.0103 3.34955 419.871 -51.0103 3.34955 419.871
311 1 -38.7583 3.3516 406.835 -38.7583 3.3516 406.835
42 1 -36.7985 0.392141 401.687 -36.7985 0.392141 401.687
1135 1 -62.3379 0.394246 419.74 -62.3379 0.394246 419.74
1171 1 -39.6777 1.87262 420.003 -39.6777 1.87262 420.003
1139 1 -59.9434 1.13292 420.238 -59.9434 1.13292 420.238
601 1 -36.5936 2.61188 410.624 -36.5936 2.61188 410.624
313 1 -37.0073 3.3533 404.97 -37.0073 3.3533 404.97
858 1 -54.6979 1.13664 414.647 -54.6979 1.13664 414.647
868 1 -49.031 0.398725 414.717 -49.031 0.398725 414.717
1147 1 -54.9261 4.08715 417.941 -54.9261 4.08715 417.941
843 1 -63.6292 3.34626 415.015 -63.6292 3.34626 415.015
593 1 -40.7381 1.87367 411.99 -40.7381 1.87367 411.99
308 1 -40.279 0.4 405.402 -40.279 0.4 405.402
861 1 -53.1772 4.0882 416.078 -53.1772 4.0882 416.078
1158 1 -47.7399 1.87387 419.438 -47.7399 1.87387 419.438
884 1 -40.0931 2.61116 414.35 -40.0931 2.61116 414.35
881 1 -41.8434 2.61115 416.213 -41.8434 2.61115 416.213
885 1 -39.4479 3.34873 416.711 -39.4479 3.34873 416.711
859 1 -54.0517 1.874 417.01 -54.0517 1.874 417.01
596 1 -38.9883 1.87398 410.126 -38.9883 1.87398 410.126
879 1 -42.7186 0.397484 417.144 -42.7186 0.397484 417.144
1172 1 -38.8026 4.08632 419.072 -38.8026 4.08632 419.072
1154 1 -50.1356 1.13614 418.939 -50.1356 1.13614 418.939
887 1 -38.5728 1.13504 415.78 -38.5728 1.13504 415.78
597 1 -38.3431 2.61139 412.487 -38.3431 2.61139 412.487
1161 1 -45.9897 1.87386 417.576 -45.9897 1.87386 417.576
1138 1 -60.5893 0.395272 417.876 -60.5893 0.395272 417.876
1149 1 -53.4055 2.61133 419.372 -53.4055 2.61133 419.372
41 1 -37.6524 2.60974 402.627 -37.6524 2.60974 402.627
888 1 -37.6978 3.34886 414.848 -37.6978 3.34886 414.848
1165 1 -43.5938 2.6113 418.075 -43.5938 2.6113 418.075
1141 1 -58.1949 1.13408 418.374 -58.1949 1.13408 418.374
1145 1 -55.8004 1.87281 418.873 -55.8004 1.87281 418.873
600 1 -37.2393 1.87451 408.262 -37.2393 1.87451 408.262
1148 1 -54.2799 0.397071 420.303 -54.2799 0.397071 420.303
882 1 -41.6133 4.08729 412.921 -41.6133 4.08729 412.921
1157 1 -48.6148 4.08745 420.37 -48.6148 4.08745 420.37
1144 1 -56.6746 4.08593 419.805 -56.6746 4.08593 419.805
602 1 -35.7188 0.39865 409.692 -35.7188 0.39865 409.692
1131 1 -64.0867 0.393479 421.604 -64.0867 0.393479 421.604
1755 1 -36.2204 2.60911 428.516 -36.2204 2.60911 428.516
1460 1 -40.7822 2.61021 424.227 -40.7822 2.61021 424.227
2308 1 -50.6322 3.34512 437.766 -50.6322 3.34512 437.766
2316 1 -45.6135 1.87018 435.469 -45.6135 1.87018 435.469
2312 1 -48.2372 4.08312 438.264 -48.2372 4.08312 438.264
1464 1 -38.3867 3.34775 424.725 -38.3867 3.34775 424.725
1461 1 -39.9072 0.396488 423.295 -39.9072 0.396488 423.295
2039 1 -39.0737 3.34621 434.603 -39.0737 3.34621 434.603
2613 1 -41.0519 1.86938 439.759 -41.0519 1.86938 439.759
1467 1 -35.9912 4.08533 425.223 -35.9912 4.08533 425.223
2603 1 -46.7167 2.60708 439.694 -46.7167 2.60708 439.694
1443 1 -50.3642 4.08686 422.232 -50.3642 4.08686 422.232
1748 1 -40.1365 3.34769 426.588 -40.1365 3.34769 426.588
2023 1 -48.0085 1.13224 434.971 -48.0085 1.13224 434.971
2310 1 -49.1117 1.86912 439.196 -49.1117 1.86912 439.196
1151 1 -51.8849 1.13542 420.802 -51.8849 1.13542 420.802
2303 1 -53.9016 0.393019 438.2 -53.9016 0.393019 438.2
2299 1 -56.2965 4.08231 437.702 -56.2965 4.08231 437.702
2033 1 -42.3437 0.394531 435.036 -42.3437 0.394531 435.036
1433 1 -56.0285 0.395985 422.167 -56.0285 0.395985 422.167
1430 1 -57.7772 0.394988 424.03 -57.7772 0.394988 424.03
1426 1 -59.526 0.394118 425.894 -59.526 0.394118 425.894
1713 1 -61.2748 0.393367 427.757 -61.2748 0.393367 427.757
1710 1 -63.0237 0.392715 429.621 -63.0237 0.392715 429.621
2330 1 -36.9073 2.60758 438.394 -36.9073 2.60758 438.394
1160 1 -46.2192 0.397659 420.868 -46.2192 0.397659 420.868
1447 1 -47.9688 0.397336 422.731 -47.9688 0.397336 422.731
1444 1 -49.718 0.396731 424.594 -49.718 0.396731 424.594
1730 1 -51.467 0.39598 426.457 -51.467 0.39598 426.457
1727 1 -53.216 0.395194 428.32 -53.216 0.395194 428.32
1724 1 -54.9649 0.394429 430.184 -54.9649 0.394429 430.184
2008 1 -56.7138 0.393706 432.047 -56.7138 0.393706 432.047
2006 1 -58.4627 0.393028 433.911 -58.4627 0.393028 433.911
1458 1 -41.6571 0.396448 425.158 -41.6571 0.396448 425.158
1743 1 -43.4067 0.396249 427.021 -43.4067 0.396249 427.021
1740 1 -45.1561 0.395881 428.884 -45.1561 0.395881 428.884
2026 1 -46.9054 0.395385 430.747 -46.9054 0.395385 430.747
2022 1 -48.6545 0.394818 432.61 -48.6545 0.394818 432.61
2019 1 -50.4035 0.394219 434.473 -50.4035 0.394219 434.473
2309 1 -49.7576 1.13167 436.835 -49.7576 1.13167 436.835
1137 1 -60.8177 3.34616 421.17 -60.8177 3.34616 421.17
1421 1 -62.5665 3.34533 423.034 -62.5665 3.34533 423.034
1439 1 -52.7593 3.34868 421.734 -52.7593 3.34868 421.734
1435 1 -54.5081 3.3477 423.597 -54.5081 3.3477 423.597
1432 1 -56.2568 3.34677 425.46 -56.2568 3.34677 425.46
1719 1 -58.0056 3.34591 427.324 -58.0056 3.34591 427.324
1716 1 -59.7545 3.34515 429.187 -59.7545 3.34515 429.187
2001 1 -61.5034 3.34447 431.051 -61.5034 3.34447 431.051
1998 1 -63.2523 3.34386 432.914 -63.2523 3.34386 432.914
2323 1 -40.8231 3.34587 436.466 -40.8231 3.34587 436.466
1453 1 -44.6985 3.34889 422.298 -44.6985 3.34889 422.298
1450 1 -46.4481 3.34862 424.161 -46.4481 3.34862 424.161
1446 1 -48.1974 3.34812 426.024 -48.1974 3.34812 426.024
1732 1 -49.9465 3.34746 427.887 -49.9465 3.34746 427.887
1729 1 -51.6955 3.34676 429.75 -51.6955 3.34676 429.75
2014 1 -53.4444 3.34605 431.614 -53.4444 3.34605 431.614
2011 1 -55.1934 3.34536 433.477 -55.1934 3.34536 433.477
1745 1 -41.8861 3.34751 428.45 -41.8861 3.34751 428.45
1742 1 -43.6355 3.34719 430.313 -43.6355 3.34719 430.313
2028 1 -45.3848 3.34675 432.176 -45.3848 3.34675 432.176
2025 1 -47.134 3.34624 434.04 -47.134 3.34624 434.04
1427 1 -59.2975 1.8706 422.6 -59.2975 1.8706 422.6
1424 1 -61.0463 1.86973 424.464 -61.0463 1.86973 424.464
1711 1 -62.7951 1.86901 426.327 -62.7951 1.86901 426.327
2322 1 -41.6978 1.13195 437.397 -41.6978 1.13195 437.397
1750 1 -38.6159 1.8715 428.017 -38.6159 1.8715 428.017
1155 1 -49.4896 1.87347 421.301 -49.4896 1.87347 421.301
1441 1 -51.2387 1.87274 423.164 -51.2387 1.87274 423.164
1438 1 -52.9876 1.87188 425.027 -52.9876 1.87188 425.027
1725 1 -54.7364 1.87102 426.89 -54.7364 1.87102 426.89
1722 1 -56.4853 1.8702 428.754 -56.4853 1.8702 428.754
1718 1 -58.2341 1.86945 430.617 -58.2341 1.86945 430.617
2003 1 -59.983 1.86876 432.481 -59.983 1.86876 432.481
2000 1 -61.732 1.86813 434.344 -61.732 1.86813 434.344
1459 1 -41.4278 1.87269 421.866 -41.4278 1.87269 421.866
1455 1 -43.1778 1.87266 423.728 -43.1778 1.87266 423.728
1452 1 -44.9274 1.87244 425.591 -44.9274 1.87244 425.591
1737 1 -46.6768 1.87201 427.454 -46.6768 1.87201 427.454
1735 1 -48.4259 1.87144 429.317 -48.4259 1.87144 429.317
2020 1 -50.175 1.87081 431.18 -50.175 1.87081 431.18
2017 1 -51.924 1.87016 433.043 -51.924 1.87016 433.043
2034 1 -42.1149 1.87104 431.743 -42.1149 1.87104 431.743
2031 1 -43.8642 1.87064 433.606 -43.8642 1.87064 433.606
2029 1 -44.7389 4.08414 434.538 -44.7389 4.08414 434.538
1146 1 -55.1542 2.61025 421.235 -55.1542 2.61025 421.235
1431 1 -56.9029 2.6092 423.098 -56.9029 2.6092 423.098
1428 1 -58.6516 2.60826 424.962 -58.6516 2.60826 424.962
1715 1 -60.4004 2.60745 426.826 -60.4004 2.60745 426.826
1712 1 -62.1492 2.60676 428.689 -62.1492 2.60676 428.689
1708 1 -63.8982 2.60615 430.553 -63.8982 2.60615 430.553
1747 1 -40.3655 1.87133 429.88 -40.3655 1.87133 429.88
1449 1 -47.0941 2.61127 421.8 -47.0941 2.61127 421.8
1445 1 -48.8435 2.61079 423.662 -48.8435 2.61079 423.662
1442 1 -50.5926 2.61009 425.525 -50.5926 2.61009 425.525
1728 1 -52.3415 2.60931 427.389 -52.3415 2.60931 427.389
1726 1 -54.0904 2.60853 429.252 -54.0904 2.60853 429.252
2010 1 -55.8393 2.60779 431.115 -55.8393 2.60779 431.115
2007 1 -57.5882 2.60709 432.979 -57.5882 2.60709 432.979
1456 1 -42.532 2.6101 426.089 -42.532 2.6101 426.089
1741 1 -44.2815 2.60981 427.952 -44.2815 2.60981 427.952
1738 1 -46.0308 2.60937 429.815 -46.0308 2.60937 429.815
2024 1 -47.7799 2.60883 431.678 -47.7799 2.60883 431.678
2021 1 -49.529 2.60825 433.542 -49.529 2.60825 433.542
2035 1 -41.469 2.60845 434.104 -41.469 2.60845 434.104
1754 1 -36.8661 1.87158 426.155 -36.8661 1.87158 426.155
1423 1 -61.6921 1.13199 422.102 -61.6921 1.13199 422.102
1420 1 -63.4409 1.13125 423.966 -63.4409 1.13125 423.966
2044 1 -35.8037 1.87034 434.169 -35.8037 1.87034 434.169
1437 1 -53.6337 1.13447 422.665 -53.6337 1.13447 422.665
1434 1 -55.3825 1.1335 424.529 -55.3825 1.1335 424.529
1721 1 -57.1312 1.1326 426.392 -57.1312 1.1326 426.392
1717 1 -58.8801 1.1318 428.256 -58.8801 1.1318 428.256
1714 1 -60.6289 1.13108 430.119 -60.6289 1.13108 430.119
1999 1 -62.3778 1.13043 431.983 -62.3778 1.13043 431.983
1997 1 -64.1268 1.12984 433.846 -64.1268 1.12984 433.846
1164 1 -43.8235 1.13519 421.367 -43.8235 1.13519 421.367
1451 1 -45.5733 1.13506 423.23 -45.5733 1.13506 423.23
1448 1 -47.3228 1.13467 425.092 -47.3228 1.13467 425.092
1734 1 -49.072 1.13408 426.955 -49.072 1.13408 426.955
1731 1 -50.821 1.13339 428.819 -50.821 1.13339 428.819
2016 1 -52.57 1.13268 430.682 -52.57 1.13268 430.682
2012 1 -54.3189 1.13198 432.545 -54.3189 1.13198 432.545
2009 1 -56.0679 1.13131 434.409 -56.0679 1.13131 434.409
1746 1 -41.0113 1.13389 427.519 -41.0113 1.13389 427.519
1744 1 -42.7608 1.13364 429.382 -42.7608 1.13364 429.382
2030 1 -44.5102 1.13325 431.245 -44.5102 1.13325 431.245
2027 1 -46.2594 1.13277 433.108 -46.2594 1.13277 433.108
2325 1 -39.9484 1.13233 435.534 -39.9484 1.13233 435.534
1749 1 -39.4907 4.08516 428.949 -39.4907 4.08516 428.949
1425 1 -60.1719 4.08387 423.532 -60.1719 4.08387 423.532
1736 1 -47.5514 4.08547 428.385 -47.5514 4.08547 428.385
1142 1 -57.5489 1.87163 420.736 -57.5489 1.87163 420.736
1720 1 -57.3597 4.08354 429.685 -57.3597 4.08354 429.685
2005 1 -59.1086 4.08283 431.549 -59.1086 4.08283 431.549
2002 1 -60.8575 4.08217 433.412 -60.8575 4.08217 433.412
1169 1 -40.5528 4.08638 420.934 -40.5528 4.08638 420.934
1723 1 -55.6108 4.08433 427.822 -55.6108 4.08433 427.822
1440 1 -52.1132 4.08605 424.095 -52.1132 4.08605 424.095
1733 1 -49.3005 4.08486 430.248 -49.3005 4.08486 430.248
2018 1 -51.0495 4.08421 432.112 -51.0495 4.08421 432.112
2015 1 -52.7985 4.08356 433.975 -52.7985 4.08356 433.975
2036 1 -41.2402 4.08493 430.812 -41.2402 4.08493 430.812
2032 1 -42.9896 4.08458 432.675 -42.9896 4.08458 432.675
2326 1 -39.3026 1.86977 437.895 -39.3026 1.86977 437.895
1752 1 -37.741 4.08528 427.086 -37.741 4.08528 427.086
1457 1 -42.3028 4.08642 422.797 -42.3028 4.08642 422.797
2043 1 -36.4495 1.13283 431.808 -36.4495 1.13283 431.808
2286 1 -63.4809 1.86752 436.208 -63.4809 1.86752 436.208
2319 1 -43.447 1.13151 439.26 -43.447 1.13151 439.26
1436 1 -53.862 4.08517 425.959 -53.862 4.08517 425.959
1422 1 -61.9207 4.08308 425.396 -61.9207 4.08308 425.396
1173 1 -38.1572 0.396458 421.433 -38.1572 0.396458 421.433
2293 1 -59.5658 1.13004 438.136 -59.5658 1.13004 438.136
2289 1 -61.9605 0.391765 437.638 -61.9605 0.391765 437.638
2295 1 -58.0454 4.08171 439.565 -58.0454 4.08171 439.565
1465 1 -37.5117 1.13403 423.794 -37.5117 1.13403 423.794
2315 1 -45.8421 0.393607 438.762 -45.8421 0.393607 438.762
2331 1 -36.6784 4.08395 435.101 -36.6784 4.08395 435.101
2297 1 -57.171 1.86828 438.634 -57.171 1.86828 438.634
2324 1 -40.1772 4.08331 438.827 -40.1772 4.08331 438.827
2306 1 -51.5067 1.13111 438.698 -51.5067 1.13111 438.698
2285 1 -63.7095 0.391146 439.501 -63.7095 0.391146 439.501
1462 1 -39.2616 1.13401 425.656 -39.2616 1.13401 425.656
1751 1 -37.9701 2.60898 430.378 -37.9701 2.60898 430.378
2329 1 -37.5531 1.87009 436.032 -37.5531 1.87009 436.032
2042 1 -37.3243 3.34647 432.74 -37.3243 3.34647 432.74
2041 1 -38.199 1.13262 433.671 -38.199 1.13262 433.671
2593 1 -52.3812 3.34455 439.63 -52.3812 3.34455 439.63
2328 1 -37.782 0.393696 439.325 -37.782 0.393696 439.325
2301 1 -54.7761 2.60645 439.132 -54.7761 2.60645 439.132
1466 1 -36.6368 3.34776 422.862 -36.6368 3.34776 422.862
2298 1 -56.9423 3.34471 435.34 -56.9423 3.34471 435.34
2321 1 -42.5724 3.34546 438.329 -42.5724 3.34546 438.329
2313 1 -47.3626 1.86966 437.333 -47.3626 1.86966 437.333
2294 1 -58.6913 3.34408 437.204 -58.6913 3.34408 437.204
2304 1 -53.0271 2.60704 437.268 -53.0271 2.60704 437.268
2300 1 -55.422 1.86889 436.77 -55.422 1.86889 436.77
2290 1 -61.0861 2.6058 436.706 -61.0861 2.6058 436.706
2318 1 -44.0929 0.394095 436.899 -44.0929 0.394095 436.899
2327 1 -38.4279 4.08367 436.964 -38.4279 4.08367 436.964
2004 1 -59.3372 2.60643 434.842 -59.3372 2.60643 434.842
2013 1 -53.673 1.86952 434.907 -53.673 1.86952 434.907
2288 1 -62.6064 4.08155 435.276 -62.6064 4.08155 435.276
2037 1 -40.5943 0.394893 433.173 -40.5943 0.394893 433.173
1739 1 -45.8021 4.08597 426.522 -45.8021 4.08597 426.522
1753 1 -37.0953 0.395332 429.447 -37.0953 0.395332 429.447
2307 1 -51.2781 2.60764 435.405 -51.2781 2.60764 435.405
2314 1 -46.488 4.08365 436.401 -46.488 4.08365 436.401
2040 1 -38.8449 0.395161 431.31 -38.8449 0.395161 431.31
2320 1 -43.2183 2.60805 435.968 -43.2183 2.60805 435.968
2292 1 -60.2116 0.392386 435.774 -60.2116 0.392386 435.774
2311 1 -48.8831 3.34568 435.903 -48.8831 3.34568 435.903
2302 1 -54.5475 4.08293 435.839 -54.5475 4.08293 435.839
2296 1 -57.8168 1.13066 436.272 -57.8168 1.13066 436.272
1463 1 -39.0322 2.6102 422.364 -39.0322 2.6102 422.364
2287 1 -62.835 2.60518 438.569 -62.835 2.60518 438.569
2291 1 -60.4402 3.34346 439.067 -60.4402 3.34346 439.067
2317 1 -44.9675 2.60758 437.831 -44.9675 2.60758 437.831
2038 1 -39.7196 2.60877 432.241 -39.7196 2.60877 432.241
2305 1 -52.1526 0.393615 436.337 -52.1526 0.393615 436.337
2332 1 -36.0326 0.394003 437.462 -36.0326 0.394003 437.462
1709 1 -63.6696 4.08243 427.259 -63.6696 4.08243 427.259
1468 1 -35.7618 1.13405 421.931 -35.7618 1.13405 421.931
1454 1 -44.0526 4.08631 424.659 -44.0526 4.08631 424.659
1429 1 -58.4232 4.08482 421.668 -58.4232 4.08482 421.668
1133 1 -63.2123 2.60756 420.672 -63.2123 2.60756 420.672
1175 1 -37.2822 2.61018 420.501 -37.2822 2.61018 420.501
2616 1 -38.8855 1.13079 443.549 -38.8855 1.13079 443.549
2901 1 -40.6348 1.13033 445.413 -40.6348 1.13033 445.413
2907 1 -37.365 4.08224 444.979 -37.365 4.08224 444.979
3194 1 -38.4683 0.391829 449.204 -38.4683 0.391829 449.204
2587 1 -55.6506 0.392439 440.064 -55.6506 0.392439 440.064
2597 1 -49.9863 4.08257 440.128 -49.9863 4.08257 440.128
2584 1 -57.3997 0.391871 441.927 -57.3997 0.391871 441.927
2581 1 -59.1487 0.391302 443.791 -59.1487 0.391302 443.791
2868 1 -60.8976 0.390706 445.654 -60.8976 0.390706 445.654
2865 1 -62.6465 0.390049 447.518 -62.6465 0.390049 447.518
2601 1 -47.5913 0.393086 440.626 -47.5913 0.393086 440.626
2598 1 -49.3405 0.392551 442.489 -49.3405 0.392551 442.489
2885 1 -51.0896 0.392022 444.353 -51.0896 0.392022 444.353
2882 1 -52.8388 0.391515 446.216 -52.8388 0.391515 446.216
2879 1 -54.5879 0.391032 448.08 -54.5879 0.391032 448.08
2612 1 -41.2806 0.392873 443.051 -41.2806 0.392873 443.051
2898 1 -43.0299 0.392372 444.915 -43.0299 0.392372 444.915
2895 1 -44.7791 0.391832 446.778 -44.7791 0.391832 446.778
3180 1 -46.5282 0.391286 448.642 -46.5282 0.391286 448.642
2576 1 -62.1892 3.34284 440.931 -62.1892 3.34284 440.931
2574 1 -63.9381 3.34219 442.794 -63.9381 3.34219 442.794
2589 1 -54.1303 3.34399 441.493 -54.1303 3.34399 441.493
2586 1 -55.8794 3.34346 443.357 -55.8794 3.34346 443.357
2874 1 -57.6284 3.34293 445.22 -57.6284 3.34293 445.22
2871 1 -59.3774 3.34238 447.084 -59.3774 3.34238 447.084
3155 1 -61.1264 3.34179 448.948 -61.1264 3.34179 448.948
2607 1 -44.3217 3.34499 440.192 -44.3217 3.34499 440.192
2604 1 -46.0709 3.34448 442.055 -46.0709 3.34448 442.055
2600 1 -47.82 3.34395 443.919 -47.82 3.34395 443.919
2887 1 -49.5692 3.34342 445.782 -49.5692 3.34342 445.782
2884 1 -51.3184 3.34291 447.646 -51.3184 3.34291 447.646
3168 1 -53.0676 3.34242 449.509 -53.0676 3.34242 449.509
2900 1 -41.5094 3.3438 446.344 -41.5094 3.3438 446.344
2897 1 -43.2585 3.34325 448.208 -43.2585 3.34325 448.208
2582 1 -58.9199 1.86768 440.497 -58.9199 1.86768 440.497
2579 1 -60.6689 1.86708 442.361 -60.6689 1.86708 442.361
2866 1 -62.4178 1.86645 444.224 -62.4178 1.86645 444.224
2578 1 -61.3147 1.12943 439.999 -61.3147 1.12943 439.999
2595 1 -50.8609 1.86857 441.06 -50.8609 1.86857 441.06
2592 1 -52.61 1.86804 442.923 -52.61 1.86804 442.923
2880 1 -54.3591 1.86752 444.787 -54.3591 1.86752 444.787
2877 1 -56.1082 1.86702 446.65 -56.1082 1.86702 446.65
2873 1 -57.8573 1.86652 448.514 -57.8573 1.86652 448.514
2609 1 -42.8012 1.86893 441.622 -42.8012 1.86893 441.622
2606 1 -44.5504 1.86842 443.485 -44.5504 1.86842 443.485
2892 1 -46.2996 1.86789 445.349 -46.2996 1.86789 445.349
2890 1 -48.0487 1.86735 447.212 -48.0487 1.86735 447.212
3174 1 -49.798 1.86683 449.075 -49.798 1.86683 449.075
2618 1 -38.0108 3.34473 442.618 -38.0108 3.34473 442.618
2585 1 -56.5251 2.60588 440.995 -56.5251 2.60588 440.995
2583 1 -58.2742 2.60531 442.859 -58.2742 2.60531 442.859
2870 1 -60.0231 2.60474 444.722 -60.0231 2.60474 444.722
2867 1 -61.7721 2.60411 446.586 -61.7721 2.60411 446.586
2863 1 -63.5209 2.60341 448.45 -63.5209 2.60341 448.45
2599 1 -48.4659 2.60655 441.558 -48.4659 2.60655 441.558
2596 1 -50.215 2.60601 443.421 -50.215 2.60601 443.421
2883 1 -51.9642 2.60549 445.284 -51.9642 2.60549 445.284
2881 1 -53.7133 2.605 447.148 -53.7133 2.605 447.148
3164 1 -55.4625 2.60452 449.012 -55.4625 2.60452 449.012
2610 1 -42.1553 2.60635 443.983 -42.1553 2.60635 443.983
2896 1 -43.9045 2.60583 445.846 -43.9045 2.60583 445.846
2893 1 -45.6536 2.60528 447.71 -45.6536 2.60528 447.71
3178 1 -47.4028 2.60475 449.573 -47.4028 2.60475 449.573
2575 1 -63.0636 1.1288 441.863 -63.0636 1.1288 441.863
2591 1 -53.2558 1.13054 440.562 -53.2558 1.13054 440.562
2588 1 -55.0048 1.13 442.425 -55.0048 1.13 442.425
2876 1 -56.7539 1.12946 444.289 -56.7539 1.12946 444.289
2872 1 -58.5029 1.12893 446.152 -58.5029 1.12893 446.152
2869 1 -60.2519 1.12836 448.016 -60.2519 1.12836 448.016
2605 1 -45.1963 1.13102 441.124 -45.1963 1.13102 441.124
2602 1 -46.9454 1.13049 442.987 -46.9454 1.13049 442.987
2889 1 -48.6946 1.12996 444.851 -48.6946 1.12996 444.851
2886 1 -50.4438 1.12943 446.714 -50.4438 1.12943 446.714
3170 1 -52.193 1.12894 448.578 -52.193 1.12894 448.578
2899 1 -42.384 1.1298 447.276 -42.384 1.1298 447.276
3184 1 -44.1331 1.12925 449.139 -44.1331 1.12925 449.139
2580 1 -59.7944 4.08111 441.429 -59.7944 4.08111 441.429
2577 1 -61.5434 4.0805 443.293 -61.5434 4.0805 443.293
2864 1 -63.2923 4.07984 445.156 -63.2923 4.07984 445.156
2862 1 -64.1667 1.86576 446.088 -64.1667 1.86576 446.088
2594 1 -51.7354 4.08203 441.991 -51.7354 4.08203 441.991
2590 1 -53.4845 4.0815 443.855 -53.4845 4.0815 443.855
2878 1 -55.2336 4.081 445.718 -55.2336 4.081 445.718
2875 1 -56.9828 4.0805 447.582 -56.9828 4.0805 447.582
3159 1 -58.7318 4.07999 449.446 -58.7318 4.07999 449.446
2611 1 -41.9265 4.08289 440.69 -41.9265 4.08289 440.69
2608 1 -43.6758 4.08241 442.553 -43.6758 4.08241 442.553
2894 1 -45.425 4.08188 444.417 -45.425 4.08188 444.417
2891 1 -47.1741 4.08134 446.28 -47.1741 4.08134 446.28
2888 1 -48.9233 4.08081 448.144 -48.9233 4.08081 448.144
2904 1 -39.1142 4.08178 446.842 -39.1142 4.08178 446.842
2621 1 -36.2614 3.3451 440.755 -36.2614 3.3451 440.755
2617 1 -38.6567 2.60724 440.257 -38.6567 2.60724 440.257
2614 1 -40.406 2.60683 442.12 -40.406 2.60683 442.12
2908 1 -36.7191 0.392332 447.34 -36.7191 0.392332 447.34
2619 1 -37.1361 1.1312 441.686 -37.1361 1.1312 441.686
2906 1 -37.5937 2.60582 448.272 -37.5937 2.60582 448.272
2905 1 -38.2396 1.86829 445.911 -38.2396 1.86829 445.911
2620 1 -36.4903 1.86872 444.048 -36.4903 1.86872 444.048
3190 1 -40.8634 4.08125 448.706 -40.8634 4.08125 448.706
2902 1 -39.9888 1.8678 447.774 -39.9888 1.8678 447.774
2903 1 -39.7601 3.34429 444.481 -39.7601 3.34429 444.481
2615 1 -39.5314 0.393317 441.188 -39.5314 0.393317 441.188
2909 1 -35.8445 2.60628 446.409 -35.8445 2.60628 446.409
14 1 -55.2872 4.11884 400.176 -55.2872 4.11884 400.176
7 1 -60.0226 2.60933 399.263 -60.0226 2.60933 399.263
25 1 -47.2312 4.10785 400.649 -47.2312 4.10785 400.649
38 1 -39.1701 4.06887 401.165 -39.1701 4.06887 401.165
23 1 -48.9834 4.09194 402.508 -48.9834 4.09194 402.508
287 1 -52.4816 4.08272 406.202 -52.4816 4.08272 406.202
878 1 -43.3637 4.08728 414.784 -43.3637 4.08728 414.784
579 1 -49.6759 4.0882 412.356 -49.6759 4.0882 412.356
585 1 -46.1736 4.08875 408.634 -46.1736 4.08875 408.634
290 1 -50.735 4.08374 404.34 -50.735 4.08374 404.34
11 1 -57.0343 4.07145 401.938 -57.0343 4.07145 401.938
595 1 -39.8632 4.08753 411.058 -39.8632 4.08753 411.058
1134 1 -62.9836 4.08397 417.378 -62.9836 4.08397 417.378
283 1 -54.2352 4.08599 408.064 -54.2352 4.08599 408.064
582 1 -47.9244 4.08809 410.496 -47.9244 4.08809 410.496
276 1 -58.7959 4.09111 403.786 -58.7959 4.09111 403.786
569 1 -55.9893 4.08914 409.922 -55.9893 4.08914 409.922
847 1 -61.2351 4.08514 415.513 -61.2351 4.08514 415.513
556 1 -64.0462 4.08529 409.356 -64.0462 4.08529 409.356
272 1 -60.5579 4.0971 405.623 -60.5579 4.0971 405.623
3 1 -61.8472 2.62597 400.94 -61.8472 2.62597 400.94
35 1 -40.9202 4.09223 403.033 -40.9202 4.09223 403.033
598 1 -38.1135 4.08818 409.195 -38.1135 4.08818 409.195
850 1 -59.487 4.08678 413.649 -59.487 4.08678 413.649
304 1 -42.6699 4.09072 404.908 -42.6699 4.09072 404.908