ITEM: TIMESTEP
0
ITEM: NUMBER OF ATOMS
4630
ITEM: BOX BOUNDS xy xz yz pp pp pp
-6.4002288462675182e+01 1.0702132031087518e+02 0.0000000000000000e+00
0.0000000000000000e+00 4.4274527100805940e+00 0.0000000000000000e+00
3.8000000000000000e+02 5.0000000000000000e+02 0.0000000000000000e+00
ITEM: ATOMS id type x y z xu yu zu
7 1 -59.7061 2.68757 399.168 -59.7061 2.68757 399.168
27 1 -46.106 1.98552 399.72 -46.106 1.98552 399.72
36 1 -40.461 1.24487 399.778 -40.461 1.24487 399.778
45 1 -34.8187 0.506202 399.84 -34.8187 0.506202 399.84
85 1 -8.99849 0.51232 399.665 -8.99849 0.51232 399.665
94 1 -3.35316 4.19948 399.725 -3.35316 4.19948 399.725
103 1 2.28885 3.46097 399.787 2.28885 3.46097 399.787
112 1 7.93044 2.72274 399.849 7.93044 2.72274 399.849
152 1 33.7485 2.72428 399.669 33.7485 2.72428 399.669
161 1 39.3945 1.98226 399.725 39.3945 1.98226 399.725
170 1 45.0376 1.24215 399.785 45.0376 1.24215 399.785
227 1 82.1471 4.1939 399.72 82.1471 4.1939 399.72
236 1 87.7928 3.45294 399.777 87.7928 3.45294 399.777
245 1 93.4346 2.71348 399.838 93.4346 2.71348 399.838
5 1 -60.6055 0.474252 399.966 -60.6055 0.474252 399.966
2 1 -62.414 0.491557 401.733 -62.414 0.491557 401.733
3 1 -61.5297 2.70216 400.848 -61.5297 2.70216 400.848
1 1 -63.2725 2.68118 402.669 107.751 2.68118 402.669
4 1 -60.886 3.43915 403.168 -60.886 3.43915 403.168
9 1 -58.2143 1.15729 400.429 -58.2143 1.15729 400.429
8 1 -59.0921 3.41135 401.382 -59.0921 3.41135 401.382
10 1 -57.5968 1.92598 402.771 -57.5968 1.92598 402.771
6 1 -59.9982 1.2193 402.252 -59.9982 1.2193 402.252
11 1 -56.731 4.14408 401.85 -56.731 4.14408 401.85
12 1 -55.8614 1.96332 400.908 -55.8614 1.96332 400.908
16 1 -53.4683 2.66231 401.371 -53.4683 2.66231 401.371
15 1 -54.3427 0.467461 402.354 -54.3427 0.467461 402.354
14 1 -54.996 4.19342 400.079 -54.996 4.19342 400.079
17 1 -52.6006 0.463963 400.52 -52.6006 0.463963 400.52
13 1 -55.2094 2.67477 403.249 -55.2094 2.67477 403.249
22 1 -49.3275 3.4362 400.123 -49.3275 3.4362 400.123
20 1 -50.2184 1.21351 400.964 -50.2184 1.21351 400.964
19 1 -51.1004 3.40654 401.885 -51.1004 3.40654 401.885
18 1 -51.9571 1.1958 402.833 -51.9571 1.1958 402.833
21 1 -49.5866 1.94503 403.321 -49.5866 1.94503 403.321
23 1 -48.7114 4.16323 402.416 -48.7114 4.16323 402.416
26 1 -46.3191 0.472432 402.883 -46.3191 0.472432 402.883
24 1 -47.8521 1.94214 401.478 -47.8521 1.94214 401.478
28 1 -45.4512 2.68819 401.99 -45.4512 2.68819 401.99
25 1 -46.9669 4.18357 400.553 -46.9669 4.18357 400.553
29 1 -44.5745 0.454768 401.008 -44.5745 0.454768 401.008
31 1 -43.707 2.68341 400.158 -43.707 2.68341 400.158
34 1 -41.3287 3.4431 400.608 -41.3287 3.4431 400.608
32 1 -43.0636 3.41889 402.472 -43.0636 3.41889 402.472
33 1 -42.2128 1.20423 401.533 -42.2128 1.20423 401.533
30 1 -43.9421 1.20124 403.382 -43.9421 1.20124 403.382
35 1 -40.6773 4.1615 402.941 -40.6773 4.1615 402.941
40 1 -38.0639 1.94392 400.219 -38.0639 1.94392 400.219
37 1 -39.8106 1.94983 402.049 -39.8106 1.94983 402.049
41 1 -37.4222 2.68038 402.533 -37.4222 2.68038 402.533
38 1 -38.9332 4.14243 401.068 -38.9332 4.14243 401.068
39 1 -38.3009 0.463149 403.442 -38.3009 0.463149 403.442
43 1 -35.6863 2.70439 400.669 -35.6863 2.70439 400.669
42 1 -36.5709 0.465349 401.594 -36.5709 0.465349 401.594
44 1 -35.0355 3.42316 403.003 -35.0355 3.42316 403.003
46 1 -34.1686 1.21139 402.111 -34.1686 1.21139 402.111
47 1 -33.2909 3.40403 401.131 -33.2909 3.40403 401.131
49 1 -32.4217 1.20553 400.281 -32.4217 1.20553 400.281
52 1 -30.0442 1.96616 400.732 -30.0442 1.96616 400.732
50 1 -31.7801 1.94212 402.596 -31.7801 1.94212 402.596
51 1 -30.9287 4.15456 401.657 -30.9287 4.15456 401.657
53 1 -29.3934 2.68498 403.066 -29.3934 2.68498 403.066
54 1 -29.1766 4.19543 399.903 -29.1766 4.19543 399.903
48 1 -32.6589 4.1524 403.505 -32.6589 4.1524 403.505
58 1 -26.7796 0.467314 400.344 -26.7796 0.467314 400.344
59 1 -26.138 1.20394 402.658 -26.138 1.20394 402.658
56 1 -27.6488 2.66583 401.193 -27.6488 2.66583 401.193
55 1 -28.5265 0.473194 402.174 -28.5265 0.473194 402.174
60 1 -25.2866 3.41637 401.72 -25.2866 3.41637 401.72
57 1 -27.0167 3.41425 403.567 -27.0167 3.41425 403.567
61 1 -24.4021 1.22795 400.795 -24.4021 1.22795 400.795
63 1 -23.5346 3.45722 399.965 -23.5346 3.45722 399.965
62 1 -23.7512 1.94675 403.128 -23.7512 1.94675 403.128
64 1 -22.8843 4.16238 402.237 -22.8843 4.16238 402.237
65 1 -22.0068 1.92749 401.256 -22.0068 1.92749 401.256
66 1 -21.3745 2.6759 403.629 -21.3745 2.6759 403.629
70 1 -18.7599 0.489256 400.856 -18.7599 0.489256 400.856
68 1 -20.4956 0.465536 402.72 -20.4956 0.465536 402.72
69 1 -19.6446 2.67774 401.782 -19.6446 2.67774 401.782
67 1 -21.1375 4.15643 400.406 -21.1375 4.15643 400.406
72 1 -17.8937 2.71823 400.027 -17.8937 2.71823 400.027
71 1 -18.1083 1.20825 403.19 -18.1083 1.20825 403.19
75 1 -15.4973 3.41805 400.466 -15.4973 3.41805 400.466
74 1 -16.3641 1.18927 401.316 -16.3641 1.18927 401.316
73 1 -17.2424 3.42366 402.298 -17.2424 3.42366 402.298
76 1 -14.8525 4.15117 402.777 -14.8525 4.15117 402.777
77 1 -13.9948 1.93389 401.83 -13.9948 1.93389 401.83
348 1 -15.7291 1.93543 403.687 -15.7291 1.93543 403.687
80 1 -12.2208 1.96317 400.069 -12.2208 1.96317 400.069
81 1 -11.6048 2.69062 402.361 -11.6048 2.69062 402.361
78 1 -13.113 4.16789 400.909 -13.113 4.16789 400.909
79 1 -12.4804 0.472755 403.266 -12.4804 0.472755 403.266
83 1 -9.8597 2.71038 400.498 -9.8597 2.71038 400.498
82 1 -10.7455 0.469041 401.423 -10.7455 0.469041 401.423
87 1 -7.46696 3.40924 400.954 -7.46696 3.40924 400.954
84 1 -9.21189 3.42728 402.828 -9.21189 3.42728 402.828
86 1 -8.34385 1.21537 401.936 -8.34385 1.21537 401.936
89 1 -6.59938 1.21042 400.104 -6.59938 1.21042 400.104
90 1 -5.95596 1.94613 402.418 -5.95596 1.94613 402.418
88 1 -6.83452 4.15607 403.328 -6.83452 4.15607 403.328
92 1 -4.22096 1.97025 400.554 -4.22096 1.97025 400.554
93 1 -3.56952 2.6888 402.887 -3.56952 2.6888 402.887
91 1 -5.10506 4.15886 401.479 -5.10506 4.15886 401.479
96 1 -1.82536 2.66965 401.015 -1.82536 2.66965 401.015
95 1 -2.70284 0.477081 401.996 -2.70284 0.477081 401.996
98 1 -0.956066 0.471134 400.165 -0.956066 0.471134 400.165
100 1 0.53684 3.4201 401.541 0.53684 3.4201 401.541
99 1 -0.314432 1.20767 402.48 -0.314432 1.20767 402.48
97 1 -1.19309 3.41793 403.389 -1.19309 3.41793 403.389
101 1 1.42139 1.23171 400.616 1.42139 1.23171 400.616
102 1 2.0722 1.95045 402.949 2.0722 1.95045 402.949
105 1 3.81663 1.93134 401.077 3.81663 1.93134 401.077
104 1 2.939 4.16612 402.058 2.939 4.16612 402.058
108 1 5.3273 0.469389 402.542 5.3273 0.469389 402.542
107 1 4.6858 4.16028 400.228 4.6858 4.16028 400.228
106 1 4.44862 2.67967 403.451 4.44862 2.67967 403.451
110 1 7.06308 0.493481 400.679 7.06308 0.493481 400.679
111 1 7.71387 1.21215 403.012 7.71387 1.21215 403.012
109 1 6.1786 2.68186 401.604 6.1786 2.68186 401.604
113 1 8.58064 3.42782 402.121 8.58064 3.42782 402.121
114 1 9.45822 1.19305 401.14 9.45822 1.19305 401.14
116 1 10.3273 3.42197 400.29 10.3273 3.42197 400.29
118 1 11.8201 1.94346 401.666 11.8201 1.94346 401.666
117 1 10.9689 4.15846 402.605 10.9689 4.15846 402.605
121 1 13.5718 1.98427 399.912 13.5718 1.98427 399.912
120 1 13.3555 0.473645 403.075 13.3555 0.473645 403.075
119 1 12.7045 4.1825 400.741 12.7045 4.1825 400.741
115 1 10.0902 1.94131 403.514 10.0902 1.94131 403.514
122 1 14.2221 2.68927 402.183 14.2221 2.68927 402.183
123 1 15.0996 0.454464 401.202 15.0996 0.454464 401.202
125 1 15.9687 2.68335 400.353 15.9687 2.68335 400.353
126 1 16.6104 3.41974 402.667 16.6104 3.41974 402.667
127 1 17.4616 1.20467 401.728 17.4616 1.20467 401.728
124 1 15.7319 1.20265 403.576 15.7319 1.20265 403.576
130 1 19.213 1.24538 399.973 19.213 1.24538 399.973
128 1 18.3459 3.44363 400.803 18.3459 3.44363 400.803
129 1 18.9971 4.16214 403.136 18.9971 4.16214 403.136
131 1 19.8637 1.95024 402.245 19.8637 1.95024 402.245
132 1 20.741 4.14275 401.263 20.741 4.14275 401.263
133 1 21.3737 0.463385 403.637 21.3737 0.463385 403.637
134 1 21.61 1.94415 400.414 21.61 1.94415 400.414
136 1 23.103 0.464994 401.789 23.103 0.464994 401.789
135 1 22.2523 2.68037 402.728 22.2523 2.68037 402.728
139 1 24.8533 0.505242 400.033 24.8533 0.505242 400.033
137 1 23.9875 2.70381 400.863 23.9875 2.70381 400.863
138 1 24.6397 3.42251 403.196 24.6397 3.42251 403.196
141 1 26.3832 3.40326 401.322 26.3832 3.40326 401.322
140 1 25.5053 1.21033 402.304 25.5053 1.21033 402.304
142 1 27.2499 1.20448 400.472 27.2499 1.20448 400.472
143 1 27.8953 1.93718 402.783 27.8953 1.93718 402.783
144 1 28.7527 4.14713 401.835 28.7527 4.14713 401.835
145 1 29.6343 1.95344 400.914 29.6343 1.95344 400.914
147 1 30.5261 4.17603 400.074 30.5261 4.17603 400.074
146 1 30.2676 2.68552 403.27 30.2676 2.68552 403.27
150 1 32.8875 0.494995 400.502 32.8875 0.494995 400.502
148 1 31.143 0.475706 402.365 31.143 0.475706 402.365
149 1 32.002 2.68137 401.427 32.002 2.68137 401.427
153 1 34.404 3.42705 401.939 34.404 3.42705 401.939
151 1 33.5362 1.2117 402.832 33.5362 1.2117 402.832
156 1 36.1479 3.42176 400.106 36.1479 3.42176 400.106
154 1 35.2805 1.19324 400.957 35.2805 1.19324 400.957
157 1 36.7923 4.15706 402.42 36.7923 4.15706 402.42
155 1 35.914 1.93976 403.33 35.914 1.93976 403.33
158 1 37.6429 1.94204 401.48 37.6429 1.94204 401.48
159 1 38.5268 4.1806 400.555 38.5268 4.1806 400.555
162 1 40.0457 2.68711 401.996 40.0457 2.68711 401.996
160 1 39.1792 0.471602 402.888 39.1792 0.471602 402.888
163 1 40.9228 0.451965 401.014 40.9228 0.451965 401.014
165 1 41.792 2.68079 400.165 41.792 2.68079 400.165
164 1 41.5562 1.20001 403.388 41.5562 1.20001 403.388
168 1 44.1701 3.44043 400.614 44.1701 3.44043 400.614
167 1 43.2857 1.20166 401.539 43.2857 1.20166 401.539
166 1 42.4347 3.41699 402.478 42.4347 3.41699 402.478
169 1 44.8219 4.1592 402.947 44.8219 4.1592 402.947
171 1 45.6886 1.94721 402.055 45.6886 1.94721 402.055
174 1 47.435 1.94101 400.225 47.435 1.94101 400.225
175 1 48.0777 2.67735 402.538 48.0777 2.67735 402.538
172 1 46.5659 4.13961 401.074 46.5659 4.13961 401.074
173 1 47.1991 0.460371 403.448 47.1991 0.460371 403.448
177 1 49.8132 2.7009 400.674 49.8132 2.7009 400.674
176 1 48.9288 0.462079 401.599 48.9288 0.462079 401.599
179 1 50.6807 0.50264 399.845 50.6807 0.50264 399.845
181 1 52.209 3.4002 401.134 52.209 3.4002 401.134
178 1 50.4649 3.41973 403.007 50.4649 3.41973 403.007
180 1 51.3316 1.20777 402.116 51.3316 1.20777 402.116
183 1 53.0781 1.20162 400.285 53.0781 1.20162 400.285
184 1 53.7206 1.93805 402.599 53.7206 1.93805 402.599
186 1 55.4562 1.96167 400.734 55.4562 1.96167 400.734
187 1 56.1079 2.68055 403.067 56.1079 2.68055 403.067
188 1 56.3237 4.19088 399.905 56.3237 4.19088 399.905
185 1 54.5718 4.15027 401.66 54.5718 4.15027 401.66
182 1 52.8421 4.14851 403.508 52.8421 4.14851 403.508
189 1 56.9746 0.468614 402.176 56.9746 0.468614 402.176
192 1 58.721 0.462498 400.345 58.721 0.462498 400.345
194 1 60.2147 3.41123 401.72 60.2147 3.41123 401.72
193 1 59.3636 1.19899 402.659 59.3636 1.19899 402.659
190 1 57.852 2.66107 401.195 57.852 2.66107 401.195
191 1 58.485 3.40943 403.568 58.485 3.40943 403.568
195 1 61.0991 1.22266 400.795 61.0991 1.22266 400.795
197 1 61.9665 3.45187 399.965 61.9665 3.45187 399.965
199 1 63.4949 1.9221 401.255 63.4949 1.9221 401.255
196 1 61.7508 1.94157 403.128 61.7508 1.94157 403.128
198 1 62.6175 4.15709 402.236 62.6175 4.15709 402.236
200 1 64.128 2.67051 403.628 64.128 2.67051 403.628
202 1 65.0065 0.460064 402.719 65.0065 0.460064 402.719
201 1 64.3639 4.15098 400.406 64.3639 4.15098 400.406
206 1 67.6093 2.71296 400.026 67.6093 2.71296 400.026
204 1 66.7419 0.483737 400.855 66.7419 0.483737 400.855
203 1 65.8576 2.67231 401.78 65.8576 2.67231 401.78
205 1 67.3937 1.20263 403.188 67.3937 1.20263 403.188
207 1 68.2604 3.41813 402.296 68.2604 3.41813 402.296
209 1 70.0067 3.41196 400.466 70.0067 3.41196 400.466
208 1 69.1376 1.18308 401.315 69.1376 1.18308 401.315
211 1 71.5003 1.93303 401.84 71.5003 1.93303 401.84
210 1 70.6496 4.14846 402.779 70.6496 4.14846 402.779
212 1 72.3848 4.17185 400.915 72.3848 4.17185 400.915
214 1 73.2509 1.97334 400.084 73.2509 1.97334 400.084
217 1 75.6477 2.67296 400.523 75.6477 2.67296 400.523
216 1 74.781 0.44423 401.373 74.781 0.44423 401.373
215 1 73.9031 2.67879 402.355 73.9031 2.67879 402.355
213 1 73.0374 0.463505 403.247 73.0374 0.463505 403.247
218 1 76.2934 3.40604 402.834 76.2934 3.40604 402.834
220 1 78.0325 3.42244 400.965 78.0325 3.42244 400.965
219 1 77.1508 1.18858 401.886 77.1508 1.18858 401.886
222 1 78.9246 1.21768 400.125 78.9246 1.21768 400.125
223 1 79.5414 1.9451 402.416 79.5414 1.9451 402.416
221 1 78.6659 4.15485 403.321 78.6659 4.15485 403.321
224 1 80.4004 4.15079 401.478 80.4004 4.15079 401.478
225 1 81.286 1.96454 400.553 81.286 1.96454 400.553
229 1 83.679 2.66322 401.008 83.679 2.66322 401.008
228 1 82.8025 0.469502 401.99 82.8025 0.469502 401.99
226 1 81.9346 2.68156 402.883 81.9346 2.68156 402.883
231 1 84.5465 0.464337 400.158 84.5465 0.464337 400.158
234 1 86.9252 1.22377 400.607 86.9252 1.22377 400.607
233 1 86.0413 3.41254 401.532 86.0413 3.41254 401.532
235 1 87.5774 1.94241 402.94 87.5774 1.94241 402.94
232 1 85.1907 1.19999 402.471 85.1907 1.19999 402.471
230 1 84.3124 3.4101 403.381 84.3124 3.4101 403.381
241 1 90.8324 0.460748 402.531 90.8324 0.460748 402.531
238 1 89.321 1.92288 401.067 89.321 1.92288 401.067
240 1 90.19 4.15172 400.217 90.19 4.15172 400.217
237 1 88.4438 4.15795 402.048 88.4438 4.15795 402.048
239 1 89.9541 2.67126 403.441 89.9541 2.67126 403.441
242 1 91.6833 2.67294 401.593 91.6833 2.67294 401.593
243 1 92.5675 0.484317 400.667 92.5675 0.484317 400.667
247 1 94.9625 1.18324 401.128 94.9625 1.18324 401.128
246 1 94.0854 3.41841 402.109 94.0854 3.41841 402.109
244 1 93.219 1.2031 403.001 93.219 1.2031 403.001
254 1 99.0733 1.9717 399.9 99.0733 1.9717 399.9
249 1 95.8315 3.41194 400.279 95.8315 3.41194 400.279
253 1 98.8601 0.463403 403.063 98.8601 0.463403 403.063
251 1 97.3236 1.93274 401.655 97.3236 1.93274 401.655
252 1 98.208 4.17086 400.73 98.208 4.17086 400.73
250 1 96.4734 4.14853 402.593 96.4734 4.14853 402.593
248 1 95.5953 1.93203 403.503 95.5953 1.93203 403.503
258 1 101.469 2.66665 400.341 101.469 2.66665 400.341
255 1 99.725 2.67742 402.172 99.725 2.67742 402.172
259 1 102.109 3.41305 402.661 102.109 3.41305 402.661
260 1 102.955 1.19892 401.734 102.955 1.19892 401.734
256 1 100.603 0.440702 401.191 100.603 0.440702 401.191
257 1 101.235 1.19677 403.57 101.235 1.19677 403.57
263 1 104.669 1.2269 399.985 104.669 1.2269 399.985
261 1 103.825 3.43727 400.804 103.825 3.43727 400.804
264 1 105.388 1.94434 402.205 105.388 1.94434 402.205
265 1 106.237 4.14058 401.252 106.237 4.14058 401.252
262 1 104.51 4.1582 403.116 104.51 4.1582 403.116
266 1 106.891 0.457521 403.613 106.891 0.457521 403.613
268 1 -62.6174 3.41748 405.038 -62.6174 3.41748 405.038
271 1 -61.1046 1.94135 406.478 -61.1046 1.94135 406.478
270 1 -61.7521 1.2138 404.097 -61.7521 1.2138 404.097
267 1 -63.4843 1.19907 405.979 -63.4843 1.19907 405.979
272 1 -60.2381 4.16138 405.544 -60.2381 4.16138 405.544
269 1 -61.9731 4.14949 407.415 -61.9731 4.14949 407.415
277 1 -57.8453 0.467267 406.052 -57.8453 0.467267 406.052
274 1 -59.3653 1.95064 404.611 -59.3653 1.95064 404.611
278 1 -56.9656 2.67689 405.12 -56.9656 2.67689 405.12
275 1 -58.7182 2.67937 406.98 -58.7182 2.67937 406.98
276 1 -58.4855 4.15952 403.701 -58.4855 4.15952 403.701
279 1 -56.3284 3.41146 407.485 -56.3284 3.41146 407.485
280 1 -56.0899 0.459848 404.195 -56.0899 0.459848 404.195
286 1 -52.8337 3.40614 403.744 -52.8337 3.40614 403.744
282 1 -54.5773 3.40895 405.62 -54.5773 3.40895 405.62
284 1 -53.7028 1.1973 404.696 -53.7028 1.1973 404.696
281 1 -55.4537 1.19691 406.556 -55.4537 1.19691 406.556
285 1 -53.0663 1.93251 407.059 -53.0663 1.93251 407.059
291 1 -49.8099 0.460165 406.624 -49.8099 0.460165 406.624
288 1 -51.3217 1.93711 405.193 -51.3217 1.93711 405.193
292 1 -48.9392 2.67849 405.69 -48.9392 2.67849 405.69
287 1 -52.1942 4.14618 406.121 -52.1942 4.14618 406.121
290 1 -50.455 4.15135 404.254 -50.455 4.15135 404.254
294 1 -48.0661 0.469458 404.759 -48.0661 0.469458 404.759
297 1 -46.5537 3.4151 406.192 -46.5537 3.4151 406.192
296 1 -47.1985 2.68301 403.825 -47.1985 2.68301 403.825
298 1 -45.6816 1.20358 405.255 -45.6816 1.20358 405.255
295 1 -47.4244 1.19911 407.125 -47.4244 1.19911 407.125
300 1 -44.8092 3.42006 404.331 -44.8092 3.42006 404.331
306 1 -41.5553 1.94257 403.886 -41.5553 1.94257 403.886
302 1 -43.2955 1.93868 405.753 -43.2955 1.93868 405.753
304 1 -42.4205 4.1566 404.821 -42.4205 4.1566 404.821
301 1 -44.1658 4.15168 406.691 -44.1658 4.15168 406.691
305 1 -41.7802 0.460185 407.188 -41.7802 0.460185 407.188
307 1 -40.9102 2.6757 406.254 -40.9102 2.6757 406.254
310 1 -39.1676 2.68183 404.391 -39.1676 2.68183 404.391
312 1 -37.6535 1.20066 405.814 -37.6535 1.20066 405.814
311 1 -38.5232 3.41322 406.752 -38.5232 3.41322 406.752
308 1 -40.0384 0.464649 405.316 -40.0384 0.464649 405.316
313 1 -36.779 3.41866 404.883 -36.779 3.41866 404.883
315 1 -35.9137 1.20445 403.947 -35.9137 1.20445 403.947
316 1 -35.2683 1.93782 406.316 -35.2683 1.93782 406.316
317 1 -34.3967 4.15414 405.378 -34.3967 4.15414 405.378
314 1 -36.1381 4.14967 407.25 -36.1381 4.14967 407.25
319 1 -33.5258 1.94373 404.453 -33.5258 1.94373 404.453
320 1 -32.8813 2.67532 406.814 -32.8813 2.67532 406.814
324 1 -30.2716 0.466315 404.01 -30.2716 0.466315 404.01
321 1 -32.0115 0.462672 405.876 -32.0115 0.462672 405.876
322 1 -31.137 2.68058 404.945 -31.137 2.68058 404.945
323 1 -30.496 3.41173 407.312 -30.496 3.41173 407.312
325 1 -29.6263 1.19982 406.378 -29.6263 1.19982 406.378
328 1 -27.8836 1.20561 404.516 -27.8836 1.20561 404.516
326 1 -28.7546 3.41607 405.44 -28.7546 3.41607 405.44
329 1 -27.2391 1.93728 406.877 -27.2391 1.93728 406.877
330 1 -26.3693 4.15204 405.939 -26.3693 4.15204 405.939
331 1 -25.4948 1.94245 405.007 -25.4948 1.94245 405.007
337 1 -22.2413 0.467358 404.578 -22.2413 0.467358 404.578
334 1 -23.984 0.461669 406.441 -23.984 0.461669 406.441
335 1 -23.1123 2.67786 405.503 -23.1123 2.67786 405.503
333 1 -24.6294 4.15559 404.072 -24.6294 4.15559 404.072
338 1 -21.5968 1.19899 406.939 -21.5968 1.19899 406.939
332 1 -24.8538 2.67363 407.375 -24.8538 2.67363 407.375
340 1 -19.8522 1.20404 405.069 -19.8522 1.20404 405.069
342 1 -18.987 3.41705 404.134 -18.987 3.41705 404.134
339 1 -20.727 3.41366 406.001 -20.727 3.41366 406.001
344 1 -17.4691 1.93857 405.563 -17.4691 1.93857 405.563
343 1 -18.3417 4.15013 406.502 -18.3417 4.15013 406.502
341 1 -19.2114 1.93491 407.436 -19.2114 1.93491 407.436
347 1 -15.957 0.460649 407.004 -15.957 0.460649 407.004
349 1 -15.087 2.6754 406.065 -15.087 2.6754 406.065
346 1 -16.5986 4.15497 404.638 -16.5986 4.15497 404.638
350 1 -14.2156 0.465981 405.136 -14.2156 0.465981 405.136
351 1 -13.5725 1.19978 407.503 -13.5725 1.19978 407.503
353 1 -12.7024 3.41615 406.568 -12.7024 3.41615 406.568
352 1 -13.3488 2.67964 404.198 -13.3488 2.67964 404.198
354 1 -11.8321 1.20676 405.634 -11.8321 1.20676 405.634
356 1 -10.959 3.42488 404.704 -10.959 3.42488 404.704
358 1 -10.0915 1.21063 403.77 -10.0915 1.21063 403.77
357 1 -10.3165 4.15472 407.07 -10.3165 4.15472 407.07
363 1 -7.05793 2.67947 406.636 -7.05793 2.67947 406.636
359 1 -9.44606 1.94307 406.137 -9.44606 1.94307 406.137
362 1 -7.70169 1.94762 404.276 -7.70169 1.94762 404.276
360 1 -8.57404 4.15881 405.2 -8.57404 4.15881 405.2
364 1 -6.18768 0.466321 405.699 -6.18768 0.466321 405.699
368 1 -4.44751 0.469955 403.832 -4.44751 0.469955 403.832
366 1 -5.31275 2.6841 404.767 -5.31275 2.6841 404.767
369 1 -3.80228 1.20325 406.2 -3.80228 1.20325 406.2
367 1 -4.67218 3.41529 407.134 -4.67218 3.41529 407.134
370 1 -2.93057 3.41956 405.262 -2.93057 3.41956 405.262
372 1 -2.05983 1.20921 404.337 -2.05983 1.20921 404.337
376 1 0.328782 1.94601 404.829 0.328782 1.94601 404.829
373 1 -1.41529 1.9407 406.699 -1.41529 1.9407 406.699
374 1 -0.545611 4.15553 405.761 -0.545611 4.15553 405.761
379 1 1.83943 0.465181 406.262 1.83943 0.465181 406.262
378 1 1.19406 4.15922 403.894 1.19406 4.15922 403.894
377 1 0.969798 2.67708 407.196 0.969798 2.67708 407.196
383 1 4.22637 1.2026 406.761 4.22637 1.2026 406.761
380 1 2.71101 2.68145 405.324 2.71101 2.68145 405.324
382 1 3.58182 0.471004 404.4 3.58182 0.471004 404.4
384 1 5.09603 3.41737 405.823 5.09603 3.41737 405.823
385 1 5.97045 1.20779 404.892 5.97045 1.20779 404.892
387 1 6.83575 3.42096 403.957 6.83575 3.42096 403.957
388 1 7.48111 4.15441 406.325 7.48111 4.15441 406.325
386 1 6.61148 1.93891 407.259 6.61148 1.93891 407.259
389 1 8.35269 1.94316 405.387 8.35269 1.94316 405.387
391 1 9.22348 4.16013 404.462 9.22348 4.16013 404.462
392 1 9.86808 0.464283 406.824 9.86808 0.464283 406.824
393 1 10.7377 2.679 405.886 10.7377 2.679 405.886
394 1 11.6121 0.469373 404.954 11.6121 0.469373 404.954
396 1 12.4774 2.6825 404.019 12.4774 2.6825 404.019
397 1 13.1229 3.41591 406.388 13.1229 3.41591 406.388
395 1 12.2532 1.20047 407.321 12.2532 1.20047 407.321
398 1 13.9944 1.20461 405.45 13.9944 1.20461 405.45
400 1 14.8652 3.42152 404.525 14.8652 3.42152 404.525
401 1 15.5099 4.15308 406.886 15.5099 4.15308 406.886
402 1 16.3795 1.94028 405.948 16.3795 1.94028 405.948
403 1 17.2539 4.15804 405.016 17.2539 4.15804 405.016
405 1 18.1191 1.94364 404.081 18.1191 1.94364 404.081
406 1 18.7648 2.67697 406.449 18.7648 2.67697 406.449
409 1 20.5071 2.68241 404.586 20.5071 2.68241 404.586
410 1 21.1521 3.41382 406.947 21.1521 3.41382 406.947
407 1 19.6363 0.465577 405.511 19.6363 0.465577 405.511
404 1 17.8952 0.461598 407.383 17.8952 0.461598 407.383
412 1 22.8962 3.41859 405.077 22.8962 3.41859 405.077
411 1 22.0216 1.2009 406.009 22.0216 1.2009 406.009
415 1 24.4071 1.9368 406.509 24.4071 1.9368 406.509
414 1 23.7612 1.20401 404.141 23.7612 1.20401 404.141
416 1 25.2794 4.15253 405.57 25.2794 4.15253 405.57
413 1 23.5375 4.1492 407.444 23.5375 4.1492 407.444
418 1 26.1497 1.94132 404.644 26.1497 1.94132 404.644
419 1 26.7919 2.67415 407.01 26.7919 2.67415 407.01
420 1 27.0189 4.14906 403.693 27.0189 4.14906 403.693
421 1 27.6617 0.461267 406.071 27.6617 0.461267 406.071
422 1 28.5329 2.67913 405.141 28.5329 2.67913 405.141
424 1 29.3994 0.46514 404.203 29.3994 0.46514 404.203
426 1 30.9167 3.41922 405.639 30.9167 3.41922 405.639
425 1 30.0466 1.20134 406.573 30.0466 1.20134 406.573
430 1 32.6568 3.4227 403.774 32.6568 3.4227 403.774
428 1 31.7895 1.20969 404.708 31.7895 1.20969 404.708
429 1 32.4328 1.9392 407.073 32.4328 1.9392 407.073
432 1 34.1749 1.94291 405.203 34.1749 1.94291 405.203
431 1 33.3031 4.15482 406.14 33.3031 4.15482 406.14
435 1 35.6916 0.463041 406.638 35.6916 0.463041 406.638
436 1 36.5617 2.67716 405.7 36.5617 2.67716 405.7
434 1 35.047 4.15899 404.279 35.047 4.15899 404.279
440 1 38.3014 2.6804 403.833 38.3014 2.6804 403.833
438 1 37.4364 0.467304 404.768 37.4364 0.467304 404.768
439 1 38.0779 1.19815 407.134 38.0779 1.19815 407.134
442 1 39.8191 1.20207 405.262 39.8191 1.20207 405.262
441 1 38.9476 3.41338 406.2 38.9476 3.41338 406.2
444 1 40.6897 3.41899 404.337 40.6897 3.41899 404.337
446 1 42.2047 1.93736 405.759 42.2047 1.93736 405.759
445 1 41.3351 4.15017 406.698 41.3351 4.15017 406.698
450 1 43.944 1.94069 403.892 43.944 1.94069 403.892
451 1 44.5903 2.67386 406.26 44.5903 2.67386 406.26
448 1 43.0789 4.15513 404.827 43.0789 4.15513 404.827
449 1 43.7208 0.458459 407.194 43.7208 0.458459 407.194
452 1 45.4618 0.462532 405.321 45.4618 0.462532 405.321
454 1 46.3324 2.67938 404.396 46.3324 2.67938 404.396
457 1 48.7218 3.41567 404.887 48.7218 3.41567 404.887
455 1 46.9779 3.41075 406.757 46.9779 3.41075 406.757
456 1 47.8475 1.19792 405.819 47.8475 1.19792 405.819
459 1 49.5869 1.20122 403.952 49.5869 1.20122 403.952
458 1 49.3637 4.14659 407.254 49.3637 4.14659 407.254
460 1 50.2332 1.93453 406.32 50.2332 1.93453 406.32
463 1 51.9754 1.94005 404.457 51.9754 1.94005 404.457
461 1 51.1047 4.15064 405.382 51.1047 4.15064 405.382
464 1 52.6208 2.67154 406.817 52.6208 2.67154 406.817
465 1 53.4904 0.458709 405.879 53.4904 0.458709 405.879
468 1 55.2299 0.462025 404.012 55.2299 0.462025 404.012
466 1 54.3647 2.67646 404.947 54.3647 2.67646 404.947
469 1 55.8762 1.19544 406.38 55.8762 1.19544 406.38
467 1 55.0067 3.4075 407.314 55.0067 3.4075 407.314
470 1 56.7476 3.41155 405.442 56.7476 3.41155 405.442
472 1 57.6183 1.20096 404.517 57.6183 1.20096 404.517
475 1 60.0077 1.93747 405.008 60.0077 1.93747 405.008
473 1 58.2638 1.93254 406.878 58.2638 1.93254 406.878
474 1 59.1334 4.14717 405.94 59.1334 4.14717 405.94
477 1 60.8728 4.15049 404.072 60.8728 4.15049 404.072
481 1 63.2613 0.46204 404.577 63.2613 0.46204 404.577
478 1 61.5191 0.45653 406.44 61.5191 0.45653 406.44
479 1 62.3906 2.67264 405.502 62.3906 2.67264 405.502
482 1 63.9068 1.1937 406.938 63.9068 1.1937 406.938
476 1 60.6496 2.66859 407.374 60.6496 2.66859 407.374
483 1 64.7764 3.40831 406 64.7764 3.40831 406
486 1 66.5158 3.4116 404.133 66.5158 3.4116 404.133
488 1 68.0336 1.93374 405.562 68.0336 1.93374 405.562
484 1 65.6507 1.19859 405.068 65.6507 1.19859 405.068
487 1 67.1622 4.14513 406.501 67.1622 4.14513 406.501
485 1 66.2927 1.92977 407.435 66.2927 1.92977 407.435
490 1 68.9044 4.15057 404.637 68.9044 4.15057 404.637
493 1 70.4194 2.6693 406.06 70.4194 2.6693 406.06
491 1 69.5499 0.454767 406.998 69.5499 0.454767 406.998
494 1 71.294 0.45955 405.128 71.294 0.45955 405.128
492 1 69.7709 1.9315 403.688 69.7709 1.9315 403.688
496 1 72.1589 2.67243 404.192 72.1589 2.67243 404.192
497 1 72.8053 3.40555 406.56 72.8053 3.40555 406.56
500 1 74.5478 3.41013 404.695 74.5478 3.41013 404.695
498 1 73.6776 1.19386 405.621 73.6776 1.19386 405.621
502 1 75.417 1.19044 403.743 75.417 1.19044 403.743
501 1 75.1904 4.14333 407.06 75.1904 4.14333 407.06
503 1 76.0602 1.93048 406.121 76.0602 1.93048 406.121
506 1 77.7978 1.93442 404.254 77.7978 1.93442 404.254
507 1 78.4452 2.67105 406.623 78.4452 2.67105 406.623
504 1 76.9313 4.14837 405.192 76.9313 4.14837 405.192
508 1 79.3153 0.461507 405.69 79.3153 0.461507 405.69
510 1 80.1881 2.67947 404.759 80.1881 2.67947 404.759
512 1 81.0553 0.465057 403.825 81.0553 0.465057 403.825
514 1 82.5735 3.41321 405.254 82.5735 3.41321 405.254
516 1 83.4455 1.20185 404.33 83.4455 1.20185 404.33
513 1 81.7017 1.19765 406.191 81.7017 1.19765 406.191
511 1 80.8316 3.40948 407.124 80.8316 3.40948 407.124
517 1 84.0903 1.93393 406.689 84.0903 1.93393 406.689
523 1 87.3461 0.457393 406.253 87.3461 0.457393 406.253
520 1 85.8349 1.93813 404.82 85.8349 1.93813 404.82
518 1 84.9603 4.14801 405.752 84.9603 4.14801 405.752
522 1 86.6998 4.15122 403.885 86.6998 4.15122 403.885
521 1 86.4766 2.66969 407.186 86.4766 2.66969 407.186
526 1 89.0878 0.462825 404.389 89.0878 0.462825 404.389
528 1 90.6028 3.40936 405.812 90.6028 3.40936 405.812
524 1 88.2174 2.67344 405.314 88.2174 2.67344 405.314
529 1 91.4767 1.19948 404.881 91.4767 1.19948 404.881
527 1 89.7336 1.19487 406.75 89.7336 1.19487 406.75
536 1 95.3762 0.457286 406.812 95.3762 0.457286 406.812
531 1 92.3414 3.4123 403.945 92.3414 3.4123 403.945
533 1 93.8593 1.93499 405.376 93.8593 1.93499 405.376
532 1 92.9884 4.14665 406.314 92.9884 4.14665 406.314
535 1 94.7294 4.15146 404.451 94.7294 4.15146 404.451
530 1 92.1193 1.9315 407.247 92.1193 1.9315 407.247
538 1 97.1187 0.461247 404.942 97.1187 0.461247 404.942
541 1 98.6313 3.41062 406.375 98.6313 3.41062 406.375
540 1 97.9828 2.67347 404.008 97.9828 2.67347 404.008
537 1 96.2451 2.67152 405.874 96.2451 2.67152 405.874
539 1 97.7627 1.19528 407.308 97.7627 1.19528 407.308
546 1 101.894 1.93732 405.929 101.894 1.93732 405.929
544 1 100.37 3.41578 404.515 100.37 3.41578 404.515
542 1 99.5016 1.19919 405.438 99.5016 1.19919 405.438
547 1 102.768 4.15525 404.997 102.768 4.15525 404.997
545 1 101.023 4.14979 406.869 101.023 4.14979 406.869
553 1 106.024 2.67616 404.552 106.024 2.67616 404.552
550 1 104.283 2.67223 406.424 104.283 2.67223 406.424
554 1 106.669 3.40985 406.917 106.669 3.40985 406.917
549 1 103.639 1.94105 404.057 103.639 1.94105 404.057
551 1 105.154 0.460459 405.485 105.154 0.460459 405.485
548 1 103.412 0.457292 407.361 103.412 0.457292 407.361
560 1 -61.328 0.453795 409.786 -61.328 0.453795 409.786
558 1 -62.8417 1.93174 408.351 -62.8417 1.93174 408.351
562 1 -60.4582 2.67143 408.85 -60.4582 2.67143 408.85
559 1 -62.1978 2.66414 410.721 -62.1978 2.66414 410.721
556 1 -63.7119 4.1423 409.288 -63.7119 4.1423 409.288
273 1 -59.5892 0.462037 407.915 -59.5892 0.462037 407.915
565 1 -58.0732 3.40883 409.35 -58.0732 3.40883 409.35
568 1 -56.558 1.92891 410.786 -56.558 1.92891 410.786
567 1 -57.2021 1.19756 408.418 -57.2021 1.19756 408.418
564 1 -58.9436 1.19204 410.285 -58.9436 1.19204 410.285
563 1 -59.8135 3.40244 411.22 -59.8135 3.40244 411.22
573 1 -53.2992 0.452831 410.355 -53.2992 0.452831 410.355
571 1 -54.814 1.93174 408.921 -54.814 1.93174 408.921
283 1 -53.9403 4.14533 407.988 -53.9403 4.14533 407.988
569 1 -55.6865 4.14441 409.852 -55.6865 4.14441 409.852
574 1 -52.4263 2.66785 409.424 -52.4263 2.66785 409.424
572 1 -54.1714 2.66526 411.288 -54.1714 2.66526 411.288
576 1 -51.5536 0.455032 408.49 -51.5536 0.455032 408.49
578 1 -50.0397 3.40514 409.925 -50.0397 3.40514 409.925
289 1 -50.681 2.67141 407.559 -50.681 2.67141 407.559
580 1 -49.1677 1.19338 408.991 -49.1677 1.19338 408.991
577 1 -50.9121 1.18954 410.857 -50.9121 1.18954 410.857
293 1 -48.2961 3.4099 408.058 -48.2961 3.4099 408.058
299 1 -45.0382 1.93532 407.622 -45.0382 1.93532 407.622
583 1 -46.7813 1.93086 409.491 -46.7813 1.93086 409.491
585 1 -45.9097 4.1469 408.557 -45.9097 4.1469 408.557
582 1 -47.6532 4.14235 410.424 -47.6532 4.14235 410.424
586 1 -45.2668 0.451587 410.923 -45.2668 0.451587 410.923
589 1 -43.5235 0.455894 409.056 -43.5235 0.455894 409.056
591 1 -42.0091 3.40385 410.488 -42.0091 3.40385 410.488
303 1 -42.6524 2.67135 408.121 -42.6524 2.67135 408.121
587 1 -44.3953 2.66736 409.989 -44.3953 2.66736 409.989
592 1 -41.1374 1.19231 409.554 -41.1374 1.19231 409.554
309 1 -39.3948 1.19662 407.685 -39.3948 1.19662 407.685