ITEM: TIMESTEP
0
ITEM: NUMBER OF ATOMS
4630
ITEM: BOX BOUNDS xy xz yz pp pp pp
-6.4144781254664110e+01 1.0716381310286411e+02 0.0000000000000000e+00
0.0000000000000000e+00 4.4274527100805940e+00 0.0000000000000000e+00
3.8000000000000000e+02 5.0000000000000000e+02 0.0000000000000000e+00
ITEM: ATOMS id type x y z xu yu zu
27 1 -46.2143 1.95397 399.761 -46.2143 1.95397 399.761
36 1 -40.5607 1.21352 399.82 -40.5607 1.21352 399.82
31 1 -43.8136 2.65257 400.2 -43.8136 2.65257 400.2
22 1 -49.441 3.40559 400.165 -49.441 3.40559 400.165
20 1 -50.335 1.18272 401.003 -50.335 1.18272 401.003
40 1 -38.1619 1.91322 400.261 -38.1619 1.91322 400.261
34 1 -41.4315 3.41174 400.648 -41.4315 3.41174 400.648
17 1 -52.7212 0.433424 400.561 -52.7212 0.433424 400.561
9 1 -58.3443 1.12737 400.468 -58.3443 1.12737 400.468
43 1 -35.7803 2.67318 400.71 -35.7803 2.67318 400.71
12 1 -55.9871 1.93222 400.947 -55.9871 1.93222 400.947
5 1 -60.7374 0.442124 400.006 -60.7374 0.442124 400.006
29 1 -44.6824 0.423988 401.049 -44.6824 0.423988 401.049
853 1 -57.7859 2.637 415.047 -57.7859 2.637 415.047
873 1 -46.4799 1.16194 415.182 -46.4799 1.16194 415.182
865 1 -50.6168 0.422755 416.547 -50.6168 0.422755 416.547
1174 1 -37.792 1.89472 418.11 -37.792 1.89472 418.11
883 1 -40.826 0.42306 415.247 -40.826 0.42306 415.247
863 1 -52.1344 1.90056 415.114 -52.1344 1.90056 415.114
315 1 -36.0081 1.1764 403.985 -36.0081 1.1764 403.985
307 1 -41.0126 2.64949 406.289 -41.0126 2.64949 406.289
1150 1 -52.362 0.419775 418.412 -52.362 0.419775 418.412
855 1 -56.2688 1.15951 416.48 -56.2688 1.15951 416.48
310 1 -39.2671 2.65418 404.428 -39.2671 2.65418 404.428
871 1 -47.3532 3.37462 416.114 -47.3532 3.37462 416.114
16 1 -53.5905 2.6318 401.411 -53.5905 2.6318 401.411
309 1 -39.4949 1.17171 407.718 -39.4949 1.17171 407.718
1156 1 -49.0993 3.37229 417.979 -49.0993 3.37229 417.979
867 1 -49.7438 2.63772 415.614 -49.7438 2.63772 415.614
1159 1 -46.7089 4.10926 418.478 -46.7089 4.10926 418.478
1168 1 -41.0551 3.37035 418.544 -41.0551 3.37035 418.544
1170 1 -40.182 1.15774 417.611 -40.182 1.15774 417.611
594 1 -40.3678 3.384 408.653 -40.3678 3.384 408.653
37 1 -39.911 1.9203 402.09 -39.911 1.9203 402.09
851 1 -58.6579 0.421352 415.981 -58.6579 0.421352 415.981
857 1 -55.3967 3.37507 415.547 -55.3967 3.37507 415.547
592 1 -41.2405 1.16899 409.586 -41.2405 1.16899 409.586
849 1 -59.5299 2.63323 416.914 -59.5299 2.63323 416.914
877 1 -44.0894 1.89877 415.681 -44.0894 1.89877 415.681
1143 1 -57.1409 3.37141 417.413 -57.1409 3.37141 417.413
1140 1 -58.8852 3.36783 419.28 -58.8852 3.36783 419.28
845 1 -61.9188 1.89505 416.416 -61.9188 1.89505 416.416
875 1 -44.9626 4.11144 416.613 -44.9626 4.11144 416.613
886 1 -39.08 0.425476 413.381 -39.08 0.425476 413.381
891 1 -35.8174 3.37764 412.946 -35.8174 3.37764 412.946
39 1 -38.3989 0.434516 403.48 -38.3989 0.434516 403.48
1177 1 -36.275 0.416831 419.541 -36.275 0.416831 419.541
1167 1 -41.9281 1.15553 419.476 -41.9281 1.15553 419.476
8 1 -59.2228 3.38115 401.421 -59.2228 3.38115 401.421
869 1 -48.2263 1.1598 417.046 -48.2263 1.1598 417.046
1136 1 -61.2742 2.62974 418.781 -61.2742 2.62974 418.781
1162 1 -45.1915 2.63126 419.91 -45.1915 2.63126 419.91
15 1 -54.4662 0.438138 402.392 -54.4662 0.438138 402.392
280 1 -56.2166 0.431843 404.231 -56.2166 0.431843 404.231
277 1 -57.9754 0.440935 406.086 -57.9754 0.440935 406.086
273 1 -59.7228 0.437336 407.946 -59.7228 0.437336 407.946
560 1 -61.4646 0.430592 409.814 -61.4646 0.430592 409.814
557 1 -63.2079 0.425829 411.683 -63.2079 0.425829 411.683
26 1 -46.4297 0.443373 402.922 -46.4297 0.443373 402.922
294 1 -48.1798 0.441941 404.795 -48.1798 0.441941 404.795
291 1 -49.9268 0.434138 406.658 -49.9268 0.434138 406.658
576 1 -51.6736 0.430668 408.522 -51.6736 0.430668 408.522
573 1 -53.4224 0.430178 410.384 -53.4224 0.430178 410.384
570 1 -55.1693 0.42857 412.248 -55.1693 0.42857 412.248
854 1 -56.9139 0.42518 414.114 -56.9139 0.42518 414.114
305 1 -41.8841 0.434786 407.222 -41.8841 0.434786 407.222
589 1 -43.6304 0.43212 409.088 -43.6304 0.43212 409.088
586 1 -45.3769 0.429439 410.953 -45.3769 0.429439 410.953
872 1 -47.1236 0.427102 412.818 -47.1236 0.427102 412.818
599 1 -37.3342 0.428133 411.515 -37.3342 0.428133 411.515
1132 1 -63.6633 1.89174 418.283 -63.6633 1.89174 418.283
4 1 -61.0207 3.41024 403.204 -61.0207 3.41024 403.204
268 1 -62.7556 3.38995 405.071 -62.7556 3.38995 405.071
1152 1 -51.4895 2.63506 417.479 -51.4895 2.63506 417.479
19 1 -51.2186 3.3763 401.923 -51.2186 3.3763 401.923
286 1 -52.9548 3.37773 403.78 -52.9548 3.37773 403.78
282 1 -54.7017 3.38227 405.654 -54.7017 3.38227 405.654
279 1 -56.4562 3.38637 407.517 -56.4562 3.38637 407.517
565 1 -58.2043 3.3854 409.38 -58.2043 3.3854 409.38
563 1 -59.9478 3.38057 411.247 -59.9478 3.38057 411.247
846 1 -61.6913 3.37608 413.116 -61.6913 3.37608 413.116
32 1 -43.1689 3.38925 402.511 -43.1689 3.38925 402.511
300 1 -44.9176 3.3922 404.368 -44.9176 3.3922 404.368
297 1 -46.6652 3.38879 406.226 -46.6652 3.38879 406.226
293 1 -48.4107 3.38519 408.091 -48.4107 3.38519 408.091
578 1 -50.1574 3.38206 409.955 -50.1574 3.38206 409.955
575 1 -51.9053 3.38042 411.818 -51.9053 3.38042 411.818
860 1 -53.6519 3.37831 413.681 -53.6519 3.37831 413.681
591 1 -42.1137 3.38134 410.518 -42.1137 3.38134 410.518
588 1 -43.8599 3.3789 412.384 -43.8599 3.3789 412.384
874 1 -45.6065 3.37668 414.249 -45.6065 3.37668 414.249
10 1 -57.7255 1.89663 402.809 -57.7255 1.89663 402.809
274 1 -59.4977 1.923 404.646 -59.4977 1.923 404.646
271 1 -61.2405 1.91529 406.51 -61.2405 1.91529 406.51
558 1 -62.9806 1.90717 408.381 -62.9806 1.90717 408.381
24 1 -47.9649 1.91112 401.517 -47.9649 1.91112 401.517
21 1 -49.7025 1.91617 403.358 -49.7025 1.91617 403.358
288 1 -51.4407 1.90987 405.228 -51.4407 1.90987 405.228
285 1 -53.1885 1.90697 407.092 -53.1885 1.90697 407.092
571 1 -54.9395 1.90786 408.952 -54.9395 1.90786 408.952
568 1 -56.6869 1.90672 410.814 -56.6869 1.90672 410.814
852 1 -58.431 1.90286 412.681 -58.431 1.90286 412.681
848 1 -60.1747 1.89874 414.548 -60.1747 1.89874 414.548
306 1 -41.6586 1.9143 403.923 -41.6586 1.9143 403.923
302 1 -43.4016 1.91198 405.788 -43.4016 1.91198 405.788
299 1 -45.1474 1.91028 407.656 -45.1474 1.91028 407.656
583 1 -46.8937 1.90744 409.522 -46.8937 1.90744 409.522
581 1 -48.6406 1.90475 411.386 -48.6406 1.90475 411.386
866 1 -50.388 1.90283 413.25 -50.388 1.90283 413.25
880 1 -42.343 1.90099 413.815 -42.343 1.90099 413.815
312 1 -37.7507 1.17416 405.85 -37.7507 1.17416 405.85
2 1 -62.5511 0.460201 401.769 -62.5511 0.460201 401.769
13 1 -55.3346 2.64618 403.286 -55.3346 2.64618 403.286
278 1 -57.0939 2.64968 405.154 -57.0939 2.64968 405.154
275 1 -58.8501 2.65388 407.012 -58.8501 2.65388 407.012
562 1 -60.5933 2.64748 408.879 -60.5933 2.64748 408.879
559 1 -62.3359 2.64172 410.749 -62.3359 2.64172 410.749
1166 1 -42.8012 3.36814 420.409 -42.8012 3.36814 420.409
889 1 -36.6902 1.16259 413.879 -36.6902 1.16259 413.879
28 1 -45.5602 2.6584 402.03 -45.5602 2.6584 402.03
296 1 -47.3108 2.6546 403.862 -47.3108 2.6546 403.862
292 1 -49.0545 2.65171 405.725 -49.0545 2.65171 405.725
289 1 -50.7994 2.64623 407.591 -50.7994 2.64623 407.591
574 1 -52.5479 2.64435 409.454 -52.5479 2.64435 409.454
572 1 -54.2963 2.64346 411.316 -54.2963 2.64346 411.316
856 1 -56.0418 2.64077 413.181 -56.0418 2.64077 413.181
303 1 -42.7578 2.64675 408.154 -42.7578 2.64675 408.154
587 1 -44.5037 2.6444 410.02 -44.5037 2.6444 410.02
584 1 -46.2502 2.64193 411.886 -46.2502 2.64193 411.886
870 1 -47.9971 2.6398 413.75 -47.9971 2.6398 413.75
6 1 -60.1308 1.18948 402.289 -60.1308 1.18948 402.289
270 1 -61.8888 1.18564 404.131 -61.8888 1.18564 404.131
267 1 -63.624 1.17237 406.011 -63.624 1.17237 406.011
890 1 -36.0462 1.89715 416.244 -36.0462 1.89715 416.244
18 1 -52.0766 1.16661 402.871 -52.0766 1.16661 402.871
284 1 -53.8256 1.16989 404.732 -53.8256 1.16989 404.732
281 1 -55.5799 1.17098 406.589 -55.5799 1.17098 406.589
567 1 -57.3316 1.17332 408.449 -57.3316 1.17332 408.449
564 1 -59.0763 1.16939 410.314 -59.0763 1.16939 410.314
561 1 -60.8195 1.16449 412.182 -60.8195 1.16449 412.182
844 1 -62.5634 1.16042 414.05 -62.5634 1.16042 414.05
33 1 -42.3169 1.17357 401.572 -42.3169 1.17357 401.572
30 1 -44.0489 1.17239 403.42 -44.0489 1.17239 403.42
298 1 -45.7915 1.1765 405.29 -45.7915 1.1765 405.29
295 1 -47.5374 1.17362 407.158 -47.5374 1.17362 407.158
580 1 -49.2838 1.16947 409.023 -49.2838 1.16947 409.023
577 1 -51.0314 1.1673 410.886 -51.0314 1.1673 410.886
862 1 -52.7789 1.16574 412.749 -52.7789 1.16574 412.749
590 1 -42.9867 1.16644 411.452 -42.9867 1.16644 411.452
876 1 -44.7332 1.16405 413.317 -44.7332 1.16405 413.317
1163 1 -44.3185 0.418671 418.977 -44.3185 0.418671 418.977
1153 1 -50.8446 3.36944 419.844 -50.8446 3.36944 419.844
311 1 -38.6219 3.38754 406.787 -38.6219 3.38754 406.787
42 1 -36.6663 0.434848 401.634 -36.6663 0.434848 401.634
1135 1 -62.1464 0.414365 419.715 -62.1464 0.414365 419.715
1171 1 -39.5379 1.89243 419.975 -39.5379 1.89243 419.975
1139 1 -59.7573 1.15239 420.214 -59.7573 1.15239 420.214
601 1 -36.4616 2.6432 410.581 -36.4616 2.6432 410.581
313 1 -36.8747 3.39143 404.919 -36.8747 3.39143 404.919
858 1 -54.5245 1.16305 414.614 -54.5245 1.16305 414.614
868 1 -48.8706 0.425091 414.682 -48.8706 0.425091 414.682
1147 1 -54.7517 4.10946 417.913 -54.7517 4.10946 417.913
843 1 -63.4355 3.37237 414.983 -63.4355 3.37237 414.983
593 1 -40.5968 1.9034 411.95 -40.5968 1.9034 411.95
308 1 -40.1394 0.437714 405.352 -40.1394 0.437714 405.352
861 1 -53.007 4.11283 416.047 -53.007 4.11283 416.047
1158 1 -47.5818 1.89432 419.411 -47.5818 1.89432 419.411
884 1 -39.9529 2.63797 414.314 -39.9529 2.63797 414.314
881 1 -41.6991 2.63566 416.18 -41.6991 2.63566 416.18
885 1 -39.309 3.37261 416.678 -39.309 3.37261 416.678
859 1 -53.8794 1.89746 416.979 -53.8794 1.89746 416.979
596 1 -38.8511 1.90598 410.083 -38.8511 1.90598 410.083
879 1 -42.5722 0.420833 417.112 -42.5722 0.420833 417.112
1172 1 -38.665 4.10729 419.042 -38.665 4.10729 419.042
1154 1 -49.972 1.1572 418.911 -49.972 1.1572 418.911
887 1 -38.436 1.16007 415.745 -38.436 1.16007 415.745
597 1 -38.2071 2.64047 412.448 -38.2071 2.64047 412.448
1161 1 -45.8358 1.89666 417.546 -45.8358 1.89666 417.546
1138 1 -60.402 0.417722 417.848 -60.402 0.417722 417.848
1149 1 -53.2344 2.63185 419.345 -53.2344 2.63185 419.345
41 1 -37.5187 2.65095 402.572 -37.5187 2.65095 402.572
888 1 -37.5631 3.37503 414.812 -37.5631 3.37503 414.812
1165 1 -43.4454 2.63349 418.045 -43.4454 2.63349 418.045
1141 1 -58.013 1.15587 418.347 -58.013 1.15587 418.347
1145 1 -55.6238 1.89396 418.846 -55.6238 1.89396 418.846
600 1 -37.1061 1.90873 408.217 -37.1061 1.90873 408.217
1148 1 -54.1067 0.41642 420.278 -54.1067 0.41642 420.278
882 1 -41.4699 4.11588 412.883 -41.4699 4.11588 412.883
1157 1 -48.4546 4.10672 420.343 -48.4546 4.10672 420.343
1144 1 -56.496 4.10592 419.779 -56.496 4.10592 419.779
602 1 -35.5888 0.431064 409.648 -35.5888 0.431064 409.648
1131 1 -63.891 0.411237 421.582 -63.891 0.411237 421.582
1755 1 -36.0878 2.61841 428.5 -36.0878 2.61841 428.5
1460 1 -40.6395 2.62476 424.205 -40.6395 2.62476 424.205
2308 1 -50.465 3.34254 437.767 -50.465 3.34254 437.767
2316 1 -45.4583 1.87059 435.466 -45.4583 1.87059 435.466
2312 1 -48.0755 4.07997 438.266 -48.0755 4.07997 438.266
1464 1 -38.2494 3.36172 424.704 -38.2494 3.36172 424.704
1461 1 -39.7667 0.41221 423.272 -39.7667 0.41221 423.272
2039 1 -38.9339 3.34787 434.597 -38.9339 3.34787 434.597
2613 1 -40.9068 1.86453 439.761 -40.9068 1.86453 439.761
1467 1 -35.8594 4.0987 425.203 -35.8594 4.0987 425.203
2603 1 -46.5584 2.60217 439.697 -46.5584 2.60217 439.697
1443 1 -50.1997 4.1038 422.209 -50.1997 4.1038 422.209
1748 1 -39.995 3.35932 426.57 -39.995 3.35932 426.57
2023 1 -47.8479 1.13323 434.967 -47.8479 1.13323 434.967
2310 1 -48.9479 1.86478 439.199 -48.9479 1.86478 439.199
1151 1 -51.717 1.15414 420.777 -51.717 1.15414 420.777
2303 1 -53.7268 0.389832 438.202 -53.7268 0.389832 438.202
2299 1 -56.1162 4.0797 437.703 -56.1162 4.0797 437.703
2033 1 -42.1962 0.395569 435.031 -42.1962 0.395569 435.031
1433 1 -55.8511 0.413003 422.145 -55.8511 0.413003 422.145
1430 1 -57.5956 0.409662 424.011 -57.5956 0.409662 424.011
1426 1 -59.3401 0.40643 425.878 -59.3401 0.40643 425.878
1713 1 -61.0847 0.403302 427.745 -61.0847 0.403302 427.745
1710 1 -62.8293 0.400262 429.611 -62.8293 0.400262 429.611
2330 1 -36.7721 2.60456 438.393 -36.7721 2.60456 438.393
1160 1 -46.0644 0.416331 420.843 -46.0644 0.416331 420.843
1447 1 -47.8098 0.413663 422.708 -47.8098 0.413663 422.708
1444 1 -49.5548 0.410713 424.574 -49.5548 0.410713 424.574
1730 1 -51.2995 0.407614 426.441 -51.2995 0.407614 426.441
1727 1 -53.0442 0.404472 428.307 -53.0442 0.404472 428.307
1724 1 -54.7888 0.401341 430.173 -54.7888 0.401341 430.173
2008 1 -56.5334 0.398242 432.04 -56.5334 0.398242 432.04
2006 1 -58.2781 0.395179 433.907 -58.2781 0.395179 433.907
1458 1 -41.5123 0.409829 425.138 -41.5123 0.409829 425.138
1743 1 -43.2577 0.407279 427.004 -43.2577 0.407279 427.004
1740 1 -45.0029 0.404554 428.87 -45.0029 0.404554 428.87
2026 1 -46.7478 0.401697 430.736 -46.7478 0.401697 430.736
2022 1 -48.4926 0.398763 432.602 -48.4926 0.398763 432.602
2019 1 -50.2374 0.395791 434.469 -50.2374 0.395791 434.469
2309 1 -49.5926 1.13029 436.834 -49.5926 1.13029 436.834
1137 1 -60.6295 3.36446 421.147 -60.6295 3.36446 421.147
1421 1 -62.3741 3.36127 423.014 -62.3741 3.36127 423.014
1439 1 -52.5894 3.36623 421.71 -52.5894 3.36623 421.71
1435 1 -54.3339 3.36292 423.577 -54.3339 3.36292 423.577
1432 1 -56.0785 3.35963 425.443 -56.0785 3.35963 425.443
1719 1 -57.823 3.35642 427.31 -57.823 3.35642 427.31
1716 1 -59.5676 3.35328 429.176 -59.5676 3.35328 429.176
2001 1 -61.3122 3.35022 431.043 -61.3122 3.35022 431.043
1998 1 -63.0568 3.3472 432.91 -63.0568 3.3472 432.91
2323 1 -40.679 3.34516 436.463 -40.679 3.34516 436.463
1453 1 -44.547 3.36579 422.274 -44.547 3.36579 422.274
1450 1 -46.2924 3.36318 424.14 -46.2924 3.36318 424.14
1446 1 -48.0374 3.36032 426.006 -48.0374 3.36032 426.006
1732 1 -49.7823 3.35732 427.872 -49.7823 3.35732 427.872
1729 1 -51.527 3.35425 429.739 -51.527 3.35425 429.739
2014 1 -53.2717 3.35117 431.605 -53.2717 3.35117 431.605
2011 1 -55.0163 3.34811 433.472 -55.0163 3.34811 433.472
1745 1 -41.7404 3.35679 428.436 -41.7404 3.35679 428.436
1742 1 -43.4856 3.3541 430.302 -43.4856 3.3541 430.302
2028 1 -45.2306 3.3513 432.168 -45.2306 3.3513 432.168
2025 1 -46.9755 3.34842 434.034 -46.9755 3.34842 434.034
1427 1 -59.1126 1.88708 422.579 -59.1126 1.88708 422.579
1424 1 -60.8571 1.88386 424.446 -60.8571 1.88386 424.446
1711 1 -62.6017 1.88076 426.313 -62.6017 1.88076 426.313
2322 1 -41.5515 1.13005 437.396 -41.5515 1.13005 437.396
1750 1 -38.4778 1.88138 428.001 -38.4778 1.88138 428.001
1155 1 -49.3272 1.89158 421.276 -49.3272 1.89158 421.276
1441 1 -51.0721 1.88851 423.142 -51.0721 1.88851 423.142
1438 1 -52.8167 1.8853 425.009 -52.8167 1.8853 425.009
1725 1 -54.5613 1.88209 426.875 -54.5613 1.88209 426.875
1722 1 -56.3059 1.87891 428.742 -56.3059 1.87891 428.742
1718 1 -58.0505 1.87578 430.608 -58.0505 1.87578 430.608
2003 1 -59.7951 1.87271 432.475 -59.7951 1.87271 432.475
2000 1 -61.5397 1.86968 434.341 -61.5397 1.86968 434.341
1459 1 -41.2839 1.89017 421.841 -41.2839 1.89017 421.841
1455 1 -43.0296 1.8878 423.706 -43.0296 1.8878 423.706
1452 1 -44.775 1.88523 425.572 -44.775 1.88523 425.572
1737 1 -46.5201 1.88245 427.438 -46.5201 1.88245 427.438
1735 1 -48.265 1.87952 429.304 -48.265 1.87952 429.304
2020 1 -50.0098 1.87653 431.171 -50.0098 1.87653 431.171
2017 1 -51.7546 1.87351 433.037 -51.7546 1.87351 433.037
2034 1 -41.9683 1.8762 431.733 -41.9683 1.8762 431.733
2031 1 -43.7134 1.87344 433.6 -43.7134 1.87344 433.6
2029 1 -44.5858 4.08575 434.533 -44.5858 4.08575 434.533
1146 1 -54.9789 2.62843 421.211 -54.9789 2.62843 421.211
1431 1 -56.7233 2.62505 423.078 -56.7233 2.62505 423.078
1428 1 -58.4678 2.62176 424.944 -58.4678 2.62176 424.944
1715 1 -60.2124 2.61858 426.811 -60.2124 2.61858 426.811
1712 1 -61.957 2.6155 428.678 -61.957 2.6155 428.678
1708 1 -63.7016 2.61249 430.545 -63.7016 2.61249 430.545
1747 1 -40.2232 1.87885 429.867 -40.2232 1.87885 429.867
1449 1 -46.9371 2.62877 421.775 -46.9371 2.62877 421.775
1445 1 -48.6823 2.62594 423.641 -48.6823 2.62594 423.641
1442 1 -50.4272 2.6229 425.507 -50.4272 2.6229 425.507
1728 1 -52.1719 2.61977 427.374 -52.1719 2.61977 427.374
1726 1 -53.9165 2.61663 429.24 -53.9165 2.61663 429.24
2010 1 -55.6611 2.61351 431.107 -55.6611 2.61351 431.107
2007 1 -57.4057 2.61043 432.973 -57.4057 2.61043 432.973
1456 1 -42.385 2.6223 426.071 -42.385 2.6223 426.071
1741 1 -44.1303 2.61966 427.937 -44.1303 2.61966 427.937
1738 1 -45.8754 2.61686 429.803 -45.8754 2.61686 429.803
2024 1 -47.6202 2.61396 431.669 -47.6202 2.61396 431.669
2021 1 -49.365 2.61101 433.536 -49.365 2.61101 433.536
2035 1 -41.3237 2.61067 434.098 -41.3237 2.61067 434.098
1754 1 -36.7323 1.8838 426.136 -36.7323 1.8838 426.136
1423 1 -61.5018 1.14911 422.081 -61.5018 1.14911 422.081
1420 1 -63.2464 1.146 423.947 -63.2464 1.146 423.947
2044 1 -35.6715 1.87263 434.163 -35.6715 1.87263 434.163
1437 1 -53.4617 1.15085 422.643 -53.4617 1.15085 422.643
1434 1 -55.2062 1.14754 424.51 -55.2062 1.14754 424.51
1721 1 -56.9507 1.14429 426.376 -56.9507 1.14429 426.376
1717 1 -58.6953 1.14111 428.243 -58.6953 1.14111 428.243
1714 1 -60.4399 1.13802 430.11 -60.4399 1.13802 430.11
1999 1 -62.1845 1.13498 431.976 -62.1845 1.13498 431.976
1997 1 -63.9291 1.13199 433.843 -63.9291 1.13199 433.843
1164 1 -43.6741 1.15327 421.342 -43.6741 1.15327 421.342
1451 1 -45.4197 1.15079 423.207 -45.4197 1.15079 423.207
1448 1 -47.165 1.14805 425.073 -47.165 1.14805 425.073
1734 1 -48.9099 1.14511 426.939 -48.9099 1.14511 426.939
1731 1 -50.6547 1.14206 428.806 -50.6547 1.14206 428.806
2016 1 -52.3994 1.13899 430.672 -52.3994 1.13899 430.672
2012 1 -54.144 1.13591 432.539 -54.144 1.13591 432.539
2009 1 -55.8887 1.13286 434.405 -55.8887 1.13286 434.405
1746 1 -40.8678 1.14435 427.503 -40.8678 1.14435 427.503
1744 1 -42.613 1.14174 429.369 -42.613 1.14174 429.369
2030 1 -44.3581 1.13899 431.235 -44.3581 1.13899 431.235
2027 1 -46.103 1.13614 433.101 -46.103 1.13614 433.101
2325 1 -39.8065 1.1328 435.53 -39.8065 1.1328 435.53
1749 1 -39.3505 4.09386 428.934 -39.3505 4.09386 428.934
1425 1 -59.9848 4.09918 423.513 -59.9848 4.09918 423.513
1736 1 -47.3926 4.09473 428.371 -47.3926 4.09473 428.371
1142 1 -57.3682 1.89045 420.712 -57.3682 1.89045 420.712
1720 1 -57.1782 4.09106 429.675 -57.1782 4.09106 429.675
2005 1 -58.9228 4.08797 431.542 -58.9228 4.08797 431.542
2002 1 -60.6674 4.08492 433.408 -60.6674 4.08492 433.408
1169 1 -40.4109 4.10503 420.908 -40.4109 4.10503 420.908
1723 1 -55.4336 4.09422 427.808 -55.4336 4.09422 427.808
1440 1 -51.9444 4.10064 424.075 -51.9444 4.10064 424.075
1733 1 -49.1374 4.09176 430.237 -49.1374 4.09176 430.237
2018 1 -50.8822 4.08874 432.104 -50.8822 4.08874 432.104
2015 1 -52.6269 4.08572 433.97 -52.6269 4.08572 433.97
2036 1 -41.0958 4.09127 430.8 -41.0958 4.09127 430.8
2032 1 -42.8409 4.08856 432.666 -42.8409 4.08856 432.666
2326 1 -39.1618 1.86731 437.895 -39.1618 1.86731 437.895
1752 1 -37.605 4.09633 427.069 -37.605 4.09633 427.069
1457 1 -42.1568 4.10274 422.773 -42.1568 4.10274 422.773
2043 1 -36.3161 1.13804 431.798 -36.3161 1.13804 431.798
2286 1 -63.2844 1.86668 436.208 -63.2844 1.86668 436.208
2319 1 -43.2964 1.12722 439.262 -43.2964 1.12722 439.262
1436 1 -53.689 4.09742 425.942 -53.689 4.09742 425.942
1422 1 -61.7294 4.09602 425.379 -61.7294 4.09602 425.379
1173 1 -38.0208 0.414506 421.407 -38.0208 0.414506 421.407
2293 1 -59.3779 1.12682 438.138 -59.3779 1.12682 438.138
2289 1 -61.7673 0.389137 437.64 -61.7673 0.389137 437.64
2295 1 -57.8608 4.07671 439.57 -57.8608 4.07671 439.57
1465 1 -37.3766 1.14916 423.771 -37.3766 1.14916 423.771
2315 1 -45.686 0.389889 438.764 -45.686 0.389889 438.764
2331 1 -36.5441 4.08505 435.096 -36.5441 4.08505 435.096
2297 1 -56.9885 1.86448 438.637 -56.9885 1.86448 438.637
2324 1 -40.0343 4.07965 438.828 -40.0343 4.07965 438.828
2306 1 -51.3374 1.12734 438.7 -51.3374 1.12734 438.7
2285 1 -63.5119 0.386132 439.506 -63.5119 0.386132 439.506
1462 1 -39.1223 1.14681 425.637 -39.1223 1.14681 425.637
1751 1 -37.8333 2.61594 430.366 -37.8333 2.61594 430.366
2329 1 -37.4167 1.87001 436.029 -37.4167 1.87001 436.029
2042 1 -37.1887 3.35049 432.731 -37.1887 3.35049 432.731
2041 1 -38.0613 1.13547 433.664 -38.0613 1.13547 433.664
2593 1 -52.2097 3.33959 439.634 -52.2097 3.33959 439.634
2328 1 -37.6446 0.389477 439.326 -37.6446 0.389477 439.326
2301 1 -54.5991 2.60207 439.135 -54.5991 2.60207 439.135
1466 1 -36.5037 3.36405 422.838 -36.5037 3.36405 422.838
2298 1 -56.761 3.34507 435.338 -56.761 3.34507 435.338
2321 1 -42.424 3.34237 438.329 -42.424 3.34237 438.329
2313 1 -47.2031 1.8677 437.332 -47.2031 1.8677 437.332
2294 1 -58.5056 3.34205 437.205 -58.5056 3.34205 437.205
2304 1 -52.8545 2.60505 437.269 -52.8545 2.60505 437.269
2300 1 -55.2439 1.86747 436.77 -55.2439 1.86747 436.77
2290 1 -60.895 2.60437 436.707 -60.895 2.60437 436.707
2318 1 -43.9411 0.392757 436.898 -43.9411 0.392757 436.898
2327 1 -38.2893 4.08239 436.962 -38.2893 4.08239 436.962
2004 1 -59.1504 2.60739 434.84 -59.1504 2.60739 434.84
2013 1 -53.4992 1.87048 434.904 -53.4992 1.87048 434.904
2288 1 -62.412 4.0819 435.275 -62.412 4.0819 435.275
2037 1 -40.4511 0.398303 433.165 -40.4511 0.398303 433.165
1739 1 -45.6476 4.09759 426.505 -45.6476 4.09759 426.505
1753 1 -36.9606 0.403462 429.433 -36.9606 0.403462 429.433
2307 1 -51.1098 2.60803 435.402 -51.1098 2.60803 435.402
2314 1 -46.3307 4.08288 436.399 -46.3307 4.08288 436.399
2040 1 -38.7059 0.400937 431.299 -38.7059 0.400937 431.299
2320 1 -43.0687 2.6079 435.964 -43.0687 2.6079 435.964
2292 1 -60.0227 0.392148 435.773 -60.0227 0.392148 435.773
2311 1 -48.7203 3.34549 435.901 -48.7203 3.34549 435.901
2302 1 -54.3716 4.0827 435.837 -54.3716 4.0827 435.837
2296 1 -57.6333 1.12983 436.272 -57.6333 1.12983 436.272
1463 1 -38.8937 2.62709 422.34 -38.8937 2.62709 422.34
2287 1 -62.6396 2.60136 438.573 -62.6396 2.60136 438.573
2291 1 -60.2502 3.33905 439.072 -60.2502 3.33905 439.072
2317 1 -44.8136 2.60505 437.831 -44.8136 2.60505 437.831
2038 1 -39.5785 2.61336 432.232 -39.5785 2.61336 432.232
2305 1 -51.9821 0.392809 436.335 -51.9821 0.392809 436.335
2332 1 -35.8995 0.392169 437.46 -35.8995 0.392169 437.46
1709 1 -63.474 4.09298 427.246 -63.474 4.09298 427.246
1468 1 -35.6308 1.15149 421.905 -35.6308 1.15149 421.905
1454 1 -43.9024 4.10027 424.639 -43.9024 4.10027 424.639
1429 1 -58.2404 4.10247 421.646 -58.2404 4.10247 421.646
1133 1 -63.0187 2.6265 420.649 -63.0187 2.6265 420.649
1175 1 -37.1479 2.62938 420.474 -37.1479 2.62938 420.474
2616 1 -38.7449 1.12123 443.558 -38.7449 1.12123 443.558
2901 1 -40.4898 1.11837 445.424 -40.4898 1.11837 445.424
2907 1 -37.2278 4.07091 444.989 -37.2278 4.07091 444.989
3194 1 -38.3279 0.375131 449.22 -38.3279 0.375131 449.22
2587 1 -55.4715 0.386867 440.069 -55.4715 0.386867 440.069
2597 1 -49.8203 4.07704 440.132 -49.8203 4.07704 440.132
2584 1 -57.2161 0.383916 441.935 -57.2161 0.383916 441.935
2581 1 -58.9607 0.380968 443.802 -58.9607 0.380968 443.802
2868 1 -60.7053 0.378003 445.668 -60.7053 0.378003 445.668
2865 1 -62.4498 0.374992 447.535 -62.4498 0.374992 447.535
2601 1 -47.4308 0.386988 440.631 -47.4308 0.386988 440.631
2598 1 -49.1755 0.384074 442.497 -49.1755 0.384074 442.497
2885 1 -50.9203 0.381167 444.364 -50.9203 0.381167 444.364
2882 1 -52.665 0.378286 446.23 -52.665 0.378286 446.23
2879 1 -54.4097 0.375435 448.097 -54.4097 0.375435 448.097
2612 1 -41.1345 0.383878 443.059 -41.1345 0.383878 443.059
2898 1 -42.8793 0.380994 444.925 -42.8793 0.380994 444.925
2895 1 -44.6241 0.378077 446.792 -44.6241 0.378077 446.792
3180 1 -46.3688 0.375158 448.658 -46.3688 0.375158 448.658
2576 1 -61.9948 3.33605 440.938 -61.9948 3.33605 440.938
2574 1 -63.7393 3.33303 442.805 -63.7393 3.33303 442.805
2589 1 -53.9544 3.33666 441.5 -53.9544 3.33666 441.5
2586 1 -55.6991 3.33374 443.367 -55.6991 3.33374 443.367
2874 1 -57.4437 3.33083 445.234 -57.4437 3.33083 445.234
2871 1 -59.1884 3.32792 447.1 -59.1884 3.32792 447.1
3155 1 -60.9329 3.32498 448.967 -60.9329 3.32498 448.967
2607 1 -44.1688 3.33952 440.196 -44.1688 3.33952 440.196
2604 1 -45.9136 3.33663 442.062 -45.9136 3.33663 442.062
2600 1 -47.6584 3.33372 443.929 -47.6584 3.33372 443.929
2887 1 -49.4032 3.33081 445.795 -49.4032 3.33081 445.795
2884 1 -51.1479 3.32792 447.662 -51.1479 3.32792 447.662
3168 1 -52.8927 3.32507 449.529 -52.8927 3.32507 449.529
2900 1 -41.3622 3.33065 446.357 -41.3622 3.33065 446.357
2897 1 -43.1069 3.32773 448.224 -43.1069 3.32773 448.224
2582 1 -58.7332 1.8615 440.503 -58.7332 1.8615 440.503
2579 1 -60.4777 1.85852 442.37 -60.4777 1.85852 442.37
2866 1 -62.2223 1.85551 444.237 -62.2223 1.85551 444.237
2578 1 -61.1225 1.12382 440.005 -61.1225 1.12382 440.005
2595 1 -50.6926 1.86186 441.065 -50.6926 1.86186 441.065
2592 1 -52.4374 1.85894 442.932 -52.4374 1.85894 442.932
2880 1 -54.1821 1.85605 444.799 -54.1821 1.85605 444.799
2877 1 -55.9268 1.85318 446.665 -55.9268 1.85318 446.665
2873 1 -57.6714 1.85032 448.532 -57.6714 1.85032 448.532
2609 1 -42.6517 1.86169 441.627 -42.6517 1.86169 441.627
2606 1 -44.3965 1.85881 443.494 -44.3965 1.85881 443.494
2892 1 -46.1413 1.85589 445.36 -46.1413 1.85589 445.36
2890 1 -47.886 1.85298 447.227 -47.886 1.85298 447.227
3174 1 -49.6308 1.85009 449.094 -49.6308 1.85009 449.094
2618 1 -37.8725 3.33636 442.624 -37.8725 3.33636 442.624
2585 1 -56.3438 2.59912 441.002 -56.3438 2.59912 441.002
2583 1 -58.0884 2.59617 442.868 -58.0884 2.59617 442.868
2870 1 -59.833 2.59322 444.735 -59.833 2.59322 444.735
2867 1 -61.5776 2.59023 446.602 -61.5776 2.59023 446.602
2863 1 -63.3221 2.58719 448.469 -63.3221 2.58719 448.469
2599 1 -48.3032 2.59926 441.564 -48.3032 2.59926 441.564
2596 1 -50.0479 2.59634 443.43 -50.0479 2.59634 443.43
2883 1 -51.7926 2.59345 445.297 -51.7926 2.59345 445.297
2881 1 -53.5374 2.59058 447.164 -53.5374 2.59058 447.164
3164 1 -55.2821 2.58774 449.03 -55.2821 2.58774 449.03
2610 1 -42.0069 2.59617 443.992 -42.0069 2.59617 443.992
2896 1 -43.7517 2.59326 445.859 -43.7517 2.59326 445.859
2893 1 -45.4964 2.59034 447.725 -45.4964 2.59034 447.725
3178 1 -47.2412 2.58744 449.592 -47.2412 2.58744 449.592
2575 1 -62.8671 1.12081 441.872 -62.8671 1.12081 441.872
2591 1 -53.0821 1.1244 440.567 -53.0821 1.1244 440.567
2588 1 -54.8268 1.12147 442.434 -54.8268 1.12147 442.434
2876 1 -56.5714 1.11856 444.3 -56.5714 1.11856 444.3
2872 1 -58.3161 1.11565 446.167 -58.3161 1.11565 446.167
2869 1 -60.0606 1.11273 448.034 -60.0606 1.11273 448.034
2605 1 -45.0412 1.12435 441.129 -45.0412 1.12435 441.129
2602 1 -46.786 1.12145 442.995 -46.786 1.12145 442.995
2889 1 -48.5308 1.11853 444.862 -48.5308 1.11853 444.862
2886 1 -50.2755 1.11564 446.729 -50.2755 1.11564 446.729
3170 1 -52.0203 1.11277 448.595 -52.0203 1.11277 448.595
2899 1 -42.2345 1.11547 447.29 -42.2345 1.11547 447.29
3184 1 -43.9792 1.11254 449.157 -43.9792 1.11254 449.157
2580 1 -59.6055 4.07373 441.437 -59.6055 4.07373 441.437
2577 1 -61.35 4.07074 443.303 -61.35 4.07074 443.303
2864 1 -63.0946 4.06772 445.17 -63.0946 4.06772 445.17
2862 1 -63.9668 1.85246 446.103 -63.9668 1.85246 446.103
2594 1 -51.565 4.07412 441.999 -51.565 4.07412 441.999
2590 1 -53.3097 4.07122 443.865 -53.3097 4.07122 443.865
2878 1 -55.0544 4.06833 445.732 -55.0544 4.06833 445.732
2875 1 -56.7991 4.06547 447.599 -56.7991 4.06547 447.599
3159 1 -58.5437 4.06261 449.465 -58.5437 4.06261 449.465
2611 1 -41.7792 4.07685 440.694 -41.7792 4.07685 440.694
2608 1 -43.5241 4.07398 442.561 -43.5241 4.07398 442.561
2894 1 -45.2689 4.07108 444.427 -45.2689 4.07108 444.427
2891 1 -47.0136 4.06816 446.294 -47.0136 4.06816 446.294
2888 1 -48.7584 4.06526 448.16 -48.7584 4.06526 448.16
2904 1 -38.9726 4.06806 446.856 -38.9726 4.06806 446.856
2621 1 -36.1275 3.33912 440.758 -36.1275 3.33912 440.758
2617 1 -38.5171 2.60183 440.26 -38.5171 2.60183 440.26
2614 1 -40.2621 2.59903 442.126 -40.2621 2.59903 442.126
2908 1 -36.5831 0.378027 447.354 -36.5831 0.378027 447.354
2619 1 -37 1.12403 441.691 -37 1.12403 441.691
2906 1 -37.4555 2.59031 448.287 -37.4555 2.59031 448.287
2905 1 -38.1002 1.85577 445.922 -38.1002 1.85577 445.922
2620 1 -36.3553 1.85859 444.056 -36.3553 1.85859 444.056
3190 1 -40.7174 4.06515 448.722 -40.7174 4.06515 448.722
2902 1 -39.845 1.85288 447.789 -39.845 1.85288 447.789
2903 1 -39.6174 3.33354 444.491 -39.6174 3.33354 444.491
2615 1 -39.3896 0.38671 441.193 -39.3896 0.38671 441.193
2909 1 -35.7107 2.59318 446.421 -35.7107 2.59318 446.421
14 1 -55.1182 4.16236 400.12 -55.1182 4.16236 400.12
7 1 -59.8389 2.65499 399.208 -59.8389 2.65499 399.208
25 1 -47.0778 4.15202 400.593 -47.0778 4.15202 400.593
38 1 -39.0326 4.11179 401.109 -39.0326 4.11179 401.109
23 1 -48.8255 4.13353 402.454 -48.8255 4.13353 402.454
287 1 -52.3149 4.11974 406.155 -52.3149 4.11974 406.155
878 1 -43.2161 4.11357 414.748 -43.2161 4.11357 414.748
579 1 -49.5143 4.11753 412.318 -49.5143 4.11753 412.318
585 1 -46.0205 4.12267 408.589 -46.0205 4.12267 408.589
290 1 -50.5725 4.12318 404.29 -50.5725 4.12318 404.29
11 1 -56.8583 4.11383 401.887 -56.8583 4.11383 401.887
595 1 -39.7239 4.1184 411.017 -39.7239 4.1184 411.017
1134 1 -62.791 4.10708 417.349 -62.791 4.10708 417.349
283 1 -54.0641 4.12061 408.02 -54.0641 4.12061 408.02
582 1 -47.7671 4.11974 410.454 -47.7671 4.11974 410.454
276 1 -58.6158 4.13103 403.737 -58.6158 4.13103 403.737
569 1 -55.8137 4.12138 409.882 -55.8137 4.12138 409.882
847 1 -61.0467 4.11056 415.482 -61.0467 4.11056 415.482
556 1 -63.8523 4.11854 409.316 -63.8523 4.11854 409.316
272 1 -60.3724 4.13461 405.578 -60.3724 4.13461 405.578
3 1 -61.6629 2.67043 400.887 -61.6629 2.67043 400.887
35 1 -40.7792 4.13265 402.98 -40.7792 4.13265 402.98
598 1 -37.9783 4.12128 409.151 -37.9783 4.12128 409.151
850 1 -59.3028 4.11447 413.614 -59.3028 4.11447 413.614
304 1 -42.5251 4.12915 404.858 -42.5251 4.12915 404.858