ITEM: TIMESTEP
0
ITEM: NUMBER OF ATOMS
4630
ITEM: BOX BOUNDS xy xz yz pp pp pp
-6.2745482417072104e+01 1.0576451426527211e+02 0.0000000000000000e+00
0.0000000000000000e+00 4.4274527100805940e+00 0.0000000000000000e+00
3.8000000000000000e+02 5.0000000000000000e+02 0.0000000000000000e+00
ITEM: ATOMS id type x y z xu yu zu
7 1 -58.5622 2.94987 398.819 -58.5622 2.94987 398.819
27 1 -45.177 2.23963 399.352 -45.177 2.23963 399.352
36 1 -39.6075 1.49712 399.409 -39.6075 1.49712 399.409
45 1 -34.0422 0.757025 399.47 -34.0422 0.757025 399.47
85 1 -8.5852 0.757511 399.297 -8.5852 0.757511 399.297
94 1 -3.01686 0.0154434 399.359 -3.01686 0.0154434 399.359
103 1 2.5459 3.70405 399.426 2.5459 3.70405 399.426
112 1 8.10656 2.96584 399.493 8.10656 2.96584 399.493
152 1 33.5347 2.97744 399.331 33.5347 2.97744 399.331
161 1 39.0973 2.23675 399.392 39.0973 2.23675 399.392
170 1 44.6551 1.49873 399.455 44.6551 1.49873 399.455
227 1 81.1931 0.0293943 399.384 81.1931 0.0293943 399.384
236 1 86.758 3.71508 399.437 86.758 3.71508 399.437
245 1 92.3189 2.97599 399.494 92.3189 2.97599 399.494
5 1 -59.4697 0.732825 399.617 -59.4697 0.732825 399.617
2 1 -61.2293 0.745059 401.417 -61.2293 0.745059 401.417
3 1 -60.3831 2.95775 400.507 -60.3831 2.95775 400.507
1 1 -62.0679 2.92556 402.368 106.442 2.92556 402.368
4 1 -59.7203 3.67193 402.853 -59.7203 3.67193 402.853
9 1 -57.0932 1.39619 400.077 -57.0932 1.39619 400.077
8 1 -57.9652 3.65376 401.042 -57.9652 3.65376 401.042
10 1 -56.4859 2.16271 402.445 -56.4859 2.16271 402.445
6 1 -58.8523 1.45957 401.92 -58.8523 1.45957 401.92
11 1 -55.6335 4.3879 401.524 -55.6335 4.3879 401.524
12 1 -54.778 2.21411 400.566 -54.778 2.21411 400.566
16 1 -52.4144 2.9075 401.025 -52.4144 2.9075 401.025
15 1 -53.2774 0.703111 402.014 -53.2774 0.703111 402.014
14 1 -53.945 0.0159693 399.722 -53.945 0.0159693 399.722
17 1 -51.5629 0.708643 400.163 -51.5629 0.708643 400.163
13 1 -54.1285 2.90466 402.925 -54.1285 2.90466 402.925
22 1 -48.3521 3.68194 399.762 -48.3521 3.68194 399.762
20 1 -49.2139 1.46125 400.616 -49.2139 1.46125 400.616
19 1 -50.0819 3.65025 401.554 -50.0819 3.65025 401.554
18 1 -50.9264 1.43101 402.5 -50.9264 1.43101 402.5
21 1 -48.5878 2.17775 402.997 -48.5878 2.17775 402.997
23 1 -47.7284 4.40293 402.076 -47.7284 4.40293 402.076
26 1 -45.3666 0.706063 402.546 -45.3666 0.706063 402.546
24 1 -46.8823 2.19266 401.139 -46.8823 2.19266 401.139
28 1 -44.5131 2.92772 401.639 -44.5131 2.92772 401.639
25 1 -46.0146 0.0105538 400.197 -46.0146 0.0105538 400.197
29 1 -43.6472 0.702027 400.651 -43.6472 0.702027 400.651
31 1 -42.792 2.93052 399.791 -42.792 2.93052 399.791
34 1 -40.4473 3.69582 400.251 -40.4473 3.69582 400.251
32 1 -42.1587 3.65774 402.129 -42.1587 3.65774 402.129
33 1 -41.3188 1.4514 401.191 -41.3188 1.4514 401.191
30 1 -43.0233 1.43368 403.051 -43.0233 1.43368 403.051
35 1 -39.8015 4.39313 402.603 -39.8015 4.39313 402.603
40 1 -37.225 2.18965 399.851 -37.225 2.18965 399.851
37 1 -38.9487 2.18682 401.697 -38.9487 2.18682 401.697
41 1 -36.5942 2.91727 402.189 -36.5942 2.91727 402.189
38 1 -38.0806 4.38839 400.71 -38.0806 4.38839 400.71
39 1 -37.4592 0.693564 403.11 -37.4592 0.693564 403.11
43 1 -34.8817 2.95571 400.312 -34.8817 2.95571 400.312
42 1 -35.7534 0.711065 401.252 -35.7534 0.711065 401.252
44 1 -34.2372 3.65278 402.664 -34.2372 3.65278 402.664
46 1 -33.384 1.44653 401.759 -33.384 1.44653 401.759
47 1 -32.5157 3.64827 400.772 -32.5157 3.64827 400.772
49 1 -31.66 1.4495 399.913 -31.66 1.4495 399.913
52 1 -29.3172 2.21557 400.375 -29.3172 2.21557 400.375
50 1 -31.0299 2.17704 402.251 -31.0299 2.17704 402.251
51 1 -30.189 4.39836 401.315 -30.189 4.39836 401.315
53 1 -28.6732 2.91244 402.728 -28.6732 2.91244 402.728
54 1 -28.4779 0.0168487 399.533 -28.4779 0.0168487 399.533
48 1 -31.8951 4.38075 403.173 -31.8951 4.38075 403.173
58 1 -26.096 0.709158 399.976 -26.096 0.709158 399.976
59 1 -25.4664 1.43662 402.315 -25.4664 1.43662 402.315
56 1 -26.9516 2.90797 400.835 -26.9516 2.90797 400.835
55 1 -27.82 0.706189 401.822 -27.82 0.706189 401.822
60 1 -24.6254 3.65798 401.379 -24.6254 3.65798 401.379
57 1 -26.3315 3.64035 403.236 -26.3315 3.64035 403.236
61 1 -23.7537 1.47517 400.439 -23.7537 1.47517 400.439
63 1 -22.9146 3.70389 399.596 -22.9146 3.70389 399.596
62 1 -23.1099 2.17182 402.791 -23.1099 2.17182 402.791
64 1 -22.2567 4.39299 401.886 -22.2567 4.39299 401.886
65 1 -21.3885 2.16726 400.899 -21.3885 2.16726 400.899
66 1 -20.7686 2.89958 403.301 -20.7686 2.89958 403.301
70 1 -18.191 0.734125 400.503 -18.191 0.734125 400.503
68 1 -19.9033 0.695805 402.379 -19.9033 0.695805 402.379
69 1 -19.0629 2.91695 401.443 -19.0629 2.91695 401.443
67 1 -20.5328 4.39587 400.04 -20.5328 4.39587 400.04
72 1 -17.3539 2.96249 399.659 -17.3539 2.96249 399.659
71 1 -17.5467 1.43085 402.855 -17.5467 1.43085 402.855
75 1 -14.9733 3.65524 400.102 -14.9733 3.65524 400.102
74 1 -15.826 1.42677 400.962 -15.826 1.42677 400.962
73 1 -16.6948 3.65176 401.949 -16.6948 3.65176 401.949
76 1 -14.3402 4.37777 402.438 -14.3402 4.37777 402.438
77 1 -13.4932 2.16889 401.493 -13.4932 2.16889 401.493
348 1 -15.2028 2.15602 403.36 -15.2028 2.15602 403.36
80 1 -11.7609 2.20015 399.704 -11.7609 2.20015 399.704
81 1 -11.1397 2.92119 402.018 -11.1397 2.92119 402.018
78 1 -12.6241 4.40699 400.556 -12.6241 4.40699 400.556
79 1 -12.0006 0.696356 402.937 -12.0006 0.696356 402.937
83 1 -9.42367 2.95592 400.141 -9.42367 2.95592 400.141
82 1 -10.2925 0.710659 401.082 -10.2925 0.710659 401.082
87 1 -7.05677 3.64741 400.598 -7.05677 3.64741 400.598
84 1 -8.77804 3.65161 402.491 -8.77804 3.65161 402.491
86 1 -7.9237 1.44568 401.585 -7.9237 1.44568 401.585
89 1 -6.2008 1.44843 399.739 -6.2008 1.44843 399.739
90 1 -5.56988 2.17582 402.077 -5.56988 2.17582 402.077
88 1 -6.43527 4.37924 402.998 -6.43527 4.37924 402.998
92 1 -3.85698 2.21412 400.201 -3.85698 2.21412 400.201
93 1 -3.21344 2.91133 402.554 -3.21344 2.91133 402.554
91 1 -4.72924 4.39703 401.14 -4.72924 4.39703 401.14
96 1 -1.4912 2.9069 400.662 -1.4912 2.9069 400.662
95 1 -2.36005 0.705106 401.649 -2.36005 0.705106 401.649
98 1 -0.635144 0.708189 399.804 -0.635144 0.708189 399.804
100 1 0.834598 3.65768 401.207 0.834598 3.65768 401.207
99 1 -0.00673704 1.43607 402.143 -0.00673704 1.43607 402.143
97 1 -0.872154 3.63961 403.064 -0.872154 3.63961 403.064
101 1 1.70668 1.47521 400.268 1.70668 1.47521 400.268
102 1 2.34916 2.17194 402.621 2.34916 2.17194 402.621
105 1 4.07142 2.16816 400.73 4.07142 2.16816 400.73
104 1 3.2026 4.39343 401.716 3.2026 4.39343 401.716
108 1 5.55494 0.697339 402.211 5.55494 0.697339 402.211
107 1 4.92712 4.39693 399.871 4.92712 4.39693 399.871
106 1 4.68964 2.90065 403.132 4.68964 2.90065 403.132
110 1 7.26798 0.736993 400.335 7.26798 0.736993 400.335
111 1 7.91017 1.4333 402.689 7.91017 1.4333 402.689
109 1 6.39617 2.91925 401.275 6.39617 2.91925 401.275
113 1 8.76338 3.65496 401.784 8.76338 3.65496 401.784
114 1 9.63205 1.42994 400.798 9.63205 1.42994 400.798
116 1 10.4874 3.6587 399.939 10.4874 3.6587 399.939
118 1 11.956 2.18121 401.344 11.956 2.18121 401.344
117 1 11.115 4.38653 402.279 11.115 4.38653 402.279
121 1 13.6654 2.22792 399.561 13.6654 2.22792 399.561
120 1 13.4696 0.695034 402.758 13.4696 0.695034 402.758
119 1 12.8275 4.42654 400.403 12.8275 4.42654 400.403
115 1 10.2499 2.16223 403.201 10.2499 2.16223 403.201
122 1 14.3225 2.9168 401.852 14.3225 2.9168 401.852
123 1 15.191 0.691956 400.865 15.191 0.691956 400.865
125 1 16.046 2.92068 400.006 16.046 2.92068 400.006
126 1 16.6735 3.64847 402.347 16.6735 3.64847 402.347
127 1 17.5142 1.44331 401.412 17.5142 1.44331 401.412
124 1 15.8088 1.42408 403.269 15.8088 1.42408 403.269
130 1 19.2225 1.49007 399.628 19.2225 1.49007 399.628
128 1 18.3853 3.68871 400.471 18.3853 3.68871 400.471
129 1 19.0277 4.38426 402.826 19.0277 4.38426 402.826
131 1 19.8803 2.17862 401.919 19.8803 2.17862 401.919
132 1 20.7482 4.38126 400.933 20.7482 4.38126 400.933
133 1 21.3663 0.685772 403.337 21.3663 0.685772 403.337
134 1 21.6029 2.18249 400.073 21.6029 2.18249 400.073
136 1 23.0707 0.704852 401.479 23.0707 0.704852 401.479
135 1 22.2308 2.91017 402.415 22.2308 2.91017 402.415
139 1 24.7764 0.751269 399.693 24.7764 0.751269 399.693
137 1 23.9417 2.95026 400.538 23.9417 2.95026 400.538
138 1 24.5852 3.64578 402.892 24.5852 3.64578 402.892
141 1 26.3043 3.64331 400.998 26.3043 3.64331 400.998
140 1 25.4361 1.43989 401.985 25.4361 1.43989 401.985
142 1 27.1557 1.44441 400.137 27.1557 1.44441 400.137
143 1 27.788 2.16698 402.475 27.788 2.16698 402.475
144 1 28.6342 4.38649 401.53 28.6342 4.38649 401.53
145 1 29.5021 2.19774 400.592 29.5021 2.19774 400.592
147 1 30.363 4.41832 399.739 30.363 4.41832 399.739
146 1 30.1252 2.91385 402.975 30.1252 2.91385 402.975
150 1 32.6982 0.748328 400.176 32.6982 0.748328 400.176
148 1 30.9849 0.712028 402.055 30.9849 0.712028 402.055
149 1 31.8309 2.92999 401.119 31.8309 2.92999 401.119
153 1 34.1976 3.66491 401.62 34.1976 3.66491 401.62
151 1 33.3445 1.44278 402.527 33.3445 1.44278 402.527
156 1 35.9181 3.66843 399.773 35.9181 3.66843 399.773
154 1 35.0635 1.43991 400.632 35.0635 1.43991 400.632
157 1 36.5491 4.39579 402.112 36.5491 4.39579 402.112
155 1 35.685 2.17115 403.035 35.685 2.17115 403.035
158 1 37.3887 2.1903 401.176 37.3887 2.1903 401.176
159 1 38.2596 0.00794824 400.235 38.2596 0.00794824 400.235
162 1 39.756 2.92565 401.682 39.756 2.92565 401.682
160 1 38.9039 0.703936 402.589 38.9039 0.703936 402.589
163 1 40.6237 0.700694 400.695 40.6237 0.700694 400.695
165 1 41.4783 2.92945 399.835 41.4783 2.92945 399.835
164 1 41.2434 1.43271 403.098 41.2434 1.43271 403.098
168 1 43.8182 3.69735 400.298 43.8182 3.69735 400.298
167 1 42.9476 1.45193 401.24 42.9476 1.45193 401.24
166 1 42.1075 3.65713 402.176 42.1075 3.65713 402.176
169 1 44.4621 4.39291 402.653 44.4621 4.39291 402.653
171 1 45.3142 2.18734 401.746 45.3142 2.18734 401.746
174 1 47.0359 2.19138 399.899 47.0359 2.19138 399.899
175 1 47.6651 2.91892 402.239 47.6651 2.91892 402.239
172 1 46.1817 4.39009 400.759 46.1817 4.39009 400.759
173 1 46.8012 0.694376 403.162 46.8012 0.694376 403.162
177 1 49.3755 2.95934 400.362 49.3755 2.95934 400.362
176 1 48.5051 0.713867 401.303 48.5051 0.713867 401.303
179 1 50.2119 0.760707 399.518 50.2119 0.760707 399.518
181 1 51.7387 3.65196 400.821 51.7387 3.65196 400.821
178 1 50.0195 3.65463 402.716 50.0195 3.65463 402.716
180 1 50.8714 1.44912 401.808 50.8714 1.44912 401.808
183 1 52.5927 1.45324 399.961 52.5927 1.45324 399.961
184 1 53.2222 2.18066 402.302 53.2222 2.18066 402.302
186 1 54.9321 2.22113 400.424 54.9321 2.22113 400.424
187 1 55.5764 2.91625 402.778 55.5764 2.91625 402.778
188 1 55.7682 0.0224765 399.58 55.7682 0.0224765 399.58
185 1 54.062 4.4031 401.366 54.062 4.4031 401.366
182 1 52.3585 4.38352 403.225 52.3585 4.38352 403.225
189 1 56.4281 0.710759 401.87 56.4281 0.710759 401.87
192 1 58.149 0.714877 400.023 58.149 0.714877 400.023
194 1 59.6184 3.66465 401.427 59.6184 3.66465 401.427
193 1 58.7788 1.4422 402.363 58.7788 1.4422 402.363
190 1 57.2952 2.91362 400.883 57.2952 2.91362 400.883
191 1 57.9153 3.64506 403.286 57.9153 3.64506 403.286
195 1 60.4883 1.48266 400.485 60.4883 1.48266 400.485
197 1 61.3241 3.71142 399.641 61.3241 3.71142 399.641
199 1 62.8514 2.17501 400.944 62.8514 2.17501 400.944
196 1 61.1331 2.17767 402.839 61.1331 2.17767 402.839
198 1 61.9845 4.3996 401.931 61.9845 4.3996 401.931
200 1 63.472 2.90637 403.347 63.472 2.90637 403.347
202 1 64.3352 0.703474 402.424 64.3352 0.703474 402.424
201 1 63.7049 4.40367 400.083 63.7049 4.40367 400.083
206 1 66.8797 2.97259 399.7 66.8797 2.97259 399.7
204 1 66.0441 0.743845 400.545 66.0441 0.743845 400.545
203 1 65.1746 2.9259 401.487 65.1746 2.9259 401.487
205 1 66.6895 1.43874 402.899 66.6895 1.43874 402.899
207 1 67.5408 3.66061 401.991 67.5408 3.66061 401.991
209 1 69.2606 3.66451 400.142 69.2606 3.66451 400.142
208 1 68.4072 1.43588 401.003 68.4072 1.43588 401.003
211 1 70.7302 2.18635 401.546 70.7302 2.18635 401.546
210 1 69.8916 4.39169 402.483 69.8916 4.39169 402.483
212 1 71.5999 0.00419795 400.603 71.5999 0.00419795 400.603
214 1 72.4334 2.23259 399.758 72.4334 2.23259 399.758
217 1 74.8135 2.9253 400.198 74.8135 2.9253 400.198
216 1 73.9631 0.696795 401.06 73.9631 0.696795 401.06
215 1 73.0962 2.92089 402.048 73.0962 2.92089 402.048
213 1 72.2465 0.699349 402.957 72.2465 0.699349 402.957
218 1 75.449 3.64746 402.535 75.449 3.64746 402.535
220 1 77.1609 3.67793 400.65 77.1609 3.67793 400.65
219 1 76.294 1.43938 401.589 76.294 1.43938 401.589
222 1 78.0209 1.47102 399.795 78.0209 1.47102 399.795
223 1 78.6459 2.19189 402.11 78.6459 2.19189 402.11
221 1 77.7871 4.39385 403.032 77.7871 4.39385 403.032
224 1 79.4909 4.40963 401.173 79.4909 4.40963 401.173
225 1 80.3572 2.22778 400.229 80.3572 2.22778 400.229
229 1 82.7235 2.91909 400.682 82.7235 2.91909 400.682
228 1 81.8587 0.716857 401.671 81.8587 0.716857 401.671
226 1 81.0065 2.92232 402.579 81.0065 2.92232 402.579
231 1 83.5775 0.720132 399.822 83.5775 0.720132 399.822
234 1 85.9205 1.48631 400.281 85.9205 1.48631 400.281
233 1 85.0503 3.66892 401.222 85.0503 3.66892 401.222
235 1 86.5676 2.18262 402.633 86.5676 2.18262 402.633
232 1 84.2116 1.44725 402.16 84.2116 1.44725 402.16
230 1 83.3483 3.65023 403.083 83.3483 3.65023 403.083
241 1 89.7719 0.707674 402.217 89.7719 0.707674 402.217
238 1 88.2859 2.17887 400.738 88.2859 2.17887 400.738
240 1 89.1399 4.40758 399.878 89.1399 4.40758 399.878
237 1 87.419 4.40414 401.726 87.419 4.40414 401.726
239 1 88.9085 2.91097 403.14 88.9085 2.91097 403.14
242 1 90.6115 2.92955 401.28 90.6115 2.92955 401.28
243 1 91.4815 0.747168 400.338 91.4815 0.747168 400.338
247 1 93.8462 1.43945 400.796 93.8462 1.43945 400.796
246 1 92.9795 3.66477 401.784 92.9795 3.66477 401.784
244 1 92.1278 1.44322 402.691 92.1278 1.44322 402.691
254 1 97.8769 2.23437 399.553 97.8769 2.23437 399.553
249 1 94.7007 3.66814 399.936 94.7007 3.66814 399.936
253 1 97.6882 0.703971 402.749 97.6882 0.703971 402.749
251 1 96.171 2.18954 401.338 96.171 2.18954 401.338
252 1 97.0422 0.00656057 400.397 97.0422 0.00656057 400.397
250 1 95.3321 4.39565 402.275 95.3321 4.39565 402.275
248 1 94.4683 2.17171 403.198 94.4683 2.17171 403.198
258 1 100.257 2.92498 399.995 100.257 2.92498 399.995
255 1 98.5385 2.92465 401.843 98.5385 2.92465 401.843
259 1 100.888 3.66155 402.339 100.888 3.66155 402.339
260 1 101.728 1.45923 401.409 101.728 1.45923 401.409
256 1 99.4076 0.698744 400.855 99.4076 0.698744 400.855
257 1 100.027 1.43655 403.26 100.027 1.43655 403.26
263 1 103.427 1.50149 399.643 103.427 1.50149 399.643
261 1 102.58 3.70676 400.465 102.58 3.70676 400.465
264 1 104.12 2.18459 401.882 104.12 2.18459 401.882
265 1 104.96 4.38066 400.917 104.96 4.38066 400.917
262 1 103.253 4.39318 402.802 103.253 4.39318 402.802
266 1 105.594 0.691993 403.311 105.594 0.691993 403.311
268 1 -61.4195 3.6395 404.75 -61.4195 3.6395 404.75
271 1 -59.9263 2.15135 406.198 -59.9263 2.15135 406.198
270 1 -60.568 1.44047 403.799 -60.568 1.44047 403.799
267 1 -62.2735 1.41485 405.697 -62.2735 1.41485 405.697
272 1 -59.0748 4.37709 405.254 -59.0748 4.37709 405.254
269 1 -60.7812 4.35403 407.145 -60.7812 4.35403 407.145
277 1 -56.7183 0.679324 405.76 -56.7183 0.679324 405.76
274 1 -58.2191 2.17339 404.308 -58.2191 2.17339 404.308
278 1 -55.8553 2.896 404.816 -55.8553 2.896 404.816
275 1 -57.5748 2.88465 406.699 -57.5748 2.88465 406.699
276 1 -57.359 4.38929 403.385 -57.359 4.38929 403.385
279 1 -55.2205 3.61349 407.204 -55.2205 3.61349 407.204
280 1 -54.9944 0.685269 403.883 -54.9944 0.685269 403.883
286 1 -51.7874 3.63514 403.425 -51.7874 3.63514 403.425
282 1 -53.5006 3.6239 405.319 -53.5006 3.6239 405.319
284 1 -52.6412 1.41818 404.383 -52.6412 1.41818 404.383
281 1 -54.3614 1.40571 406.265 -54.3614 1.40571 406.265
285 1 -52.0084 2.13851 406.77 -52.0084 2.13851 406.77
291 1 -48.7998 0.66996 406.328 -48.7998 0.66996 406.328
288 1 -50.2941 2.15696 404.884 -50.2941 2.15696 404.884
292 1 -47.9434 2.89427 405.385 -47.9434 2.89427 405.385
287 1 -51.1513 4.35948 405.824 -51.1513 4.35948 405.824
290 1 -49.4412 4.37869 403.939 -49.4412 4.37869 403.939
294 1 -47.0849 0.691066 404.443 -47.0849 0.691066 404.443
297 1 -45.5907 3.62693 405.888 -45.5907 3.62693 405.888
296 1 -46.231 2.91167 403.501 -46.231 2.91167 403.501
298 1 -44.7334 1.42156 404.941 -44.7334 1.42156 404.941
295 1 -46.4473 1.4044 406.831 -46.4473 1.4044 406.831
300 1 -43.8757 3.64447 404.006 -43.8757 3.64447 404.006
306 1 -40.6667 2.16986 403.558 -40.6667 2.16986 403.558
302 1 -42.3802 2.15349 405.442 -42.3802 2.15349 405.442
304 1 -41.5195 4.37743 404.5 -41.5195 4.37743 404.5
301 1 -43.2363 4.35959 406.389 -43.2363 4.35959 406.389
305 1 -40.884 0.664504 406.889 -40.884 0.664504 406.889
307 1 -40.0276 2.8865 405.947 -40.0276 2.8865 405.947
310 1 -38.3124 2.9043 404.065 -38.3124 2.9043 404.065
312 1 -36.817 1.41363 405.503 -36.817 1.41363 405.503
311 1 -37.6735 3.61964 406.448 -37.6735 3.61964 406.448
308 1 -39.1696 0.681281 405 -39.1696 0.681281 405
313 1 -35.9561 3.63739 404.561 -35.9561 3.63739 404.561
315 1 -35.1027 1.42969 403.619 -35.1027 1.42969 403.619
316 1 -34.4645 2.14656 406.008 -34.4645 2.14656 406.008
317 1 -33.6061 4.3686 405.062 -33.6061 4.3686 405.062
314 1 -35.3212 4.35213 406.95 -35.3212 4.35213 406.95
319 1 -32.7486 2.16405 404.127 -32.7486 2.16405 404.127
320 1 -32.1104 2.87956 406.511 -32.1104 2.87956 406.511
324 1 -29.5389 0.689377 403.682 -29.5389 0.689377 403.682
321 1 -31.2536 0.673424 405.565 -31.2536 0.673424 405.565
322 1 -30.3925 2.89711 404.623 -30.3925 2.89711 404.623
323 1 -29.7582 3.61194 407.013 -29.7582 3.61194 407.013
325 1 -28.9012 1.40628 406.071 -28.9012 1.40628 406.071
328 1 -27.185 1.42366 404.19 -27.185 1.42366 404.19
326 1 -28.0427 3.62825 405.125 -28.0427 3.62825 405.125
329 1 -26.5472 2.1392 406.574 -26.5472 2.1392 406.574
330 1 -25.6904 4.36045 405.629 -25.6904 4.36045 405.629
331 1 -24.8292 2.15662 404.687 -24.8292 2.15662 404.687
337 1 -21.6219 0.682993 404.254 -21.6219 0.682993 404.254
334 1 -23.3381 0.665765 406.135 -23.3381 0.665765 406.135
335 1 -22.4797 2.88764 405.189 -22.4797 2.88764 405.189
333 1 -23.9755 4.3763 403.746 -23.9755 4.3763 403.746
338 1 -20.9842 1.39857 406.638 -20.9842 1.39857 406.638
332 1 -24.1952 2.8715 407.077 -24.1952 2.8715 407.077
340 1 -19.2661 1.41581 404.751 -19.2661 1.41581 404.751
342 1 -18.4128 3.63532 403.81 -18.4128 3.63532 403.81
339 1 -20.1275 3.61971 405.693 -20.1275 3.61971 405.693
344 1 -16.9158 2.14575 405.252 -16.9158 2.14575 405.252
343 1 -17.7751 4.35176 406.199 -17.7751 4.35176 406.199
341 1 -18.632 2.13043 407.141 -18.632 2.13043 407.141
347 1 -15.4241 0.658735 406.706 -15.4241 0.658735 406.706
349 1 -14.5673 2.88031 405.76 -14.5673 2.88031 405.76
346 1 -16.0587 4.36775 404.316 -16.0587 4.36775 404.316
350 1 -13.7098 0.677062 404.822 -13.7098 0.677062 404.822
351 1 -13.0727 1.39433 407.211 -13.0727 1.39433 407.211
353 1 -12.2154 3.6171 406.268 -12.2154 3.6171 406.268
352 1 -12.8553 2.89797 403.878 -12.8553 2.89797 403.878
354 1 -11.3582 1.4134 405.326 -11.3582 1.4134 405.326
356 1 -10.4985 3.63719 404.385 -10.4985 3.63719 404.385
358 1 -9.64358 1.42996 403.444 -9.64358 1.42996 403.444
357 1 -9.86281 4.35088 406.773 -9.86281 4.35088 406.773
363 1 -6.65113 2.87804 406.336 -6.65113 2.87804 406.336
359 1 -9.00536 2.14559 405.832 -9.00536 2.14559 405.832
362 1 -7.28858 2.16266 403.952 -7.28858 2.16266 403.952
360 1 -8.14711 4.3674 404.887 -8.14711 4.3674 404.887
364 1 -5.79423 0.671782 405.391 -5.79423 0.671782 405.391
368 1 -4.07927 0.688035 403.508 -4.07927 0.688035 403.508
366 1 -4.93278 2.89562 404.449 -4.93278 2.89562 404.449
369 1 -3.44217 1.40485 405.898 -3.44217 1.40485 405.898
367 1 -4.29921 3.61037 406.839 -4.29921 3.61037 406.839
370 1 -2.58358 3.62708 404.952 -2.58358 3.62708 404.952
372 1 -1.72586 1.42271 404.017 -1.72586 1.42271 404.017
376 1 0.629398 2.15615 404.516 0.629398 2.15615 404.516
373 1 -1.08882 2.13818 406.402 -1.08882 2.13818 406.402
374 1 -0.231889 4.35972 405.457 -0.231889 4.35972 405.457
379 1 2.11959 0.665578 405.966 2.11959 0.665578 405.966
378 1 1.48327 4.37611 403.576 1.48327 4.37611 403.576
377 1 1.26249 2.87098 406.907 1.26249 2.87098 406.907
383 1 4.47247 1.39906 406.471 4.47247 1.39906 406.471
380 1 2.97817 2.88782 405.02 2.97817 2.88782 405.02
382 1 3.836 0.683542 404.085 3.836 0.683542 404.085
384 1 5.32939 3.62068 405.526 5.32939 3.62068 405.526
385 1 6.19064 1.41723 404.584 6.19064 1.41723 404.584
387 1 7.04442 3.63735 403.644 7.04442 3.63735 403.644
388 1 7.68035 4.35419 406.034 7.68035 4.35419 406.034
386 1 6.82332 2.13205 406.975 6.82332 2.13205 406.975
389 1 8.53882 2.14908 405.089 8.53882 2.14908 405.089
391 1 9.39649 4.37239 404.154 9.39649 4.37239 404.154
392 1 10.0327 0.660383 406.539 10.0327 0.660383 406.539
393 1 10.8895 2.88211 405.594 10.8895 2.88211 405.594
394 1 11.7505 0.67876 404.653 11.7505 0.67876 404.653
396 1 12.6041 2.899 403.712 12.6041 2.899 403.712
397 1 13.24 3.61574 406.103 13.24 3.61574 406.103
395 1 12.3831 1.39351 407.044 12.3831 1.39351 407.044
398 1 14.0982 1.41071 405.157 14.0982 1.41071 405.157
400 1 14.9556 3.6341 404.222 14.9556 3.6341 404.222
401 1 15.5919 4.34947 406.608 15.5919 4.34947 406.608
402 1 16.4485 2.14381 405.663 16.4485 2.14381 405.663
403 1 17.3092 4.36796 404.721 17.3092 4.36796 404.721
405 1 18.1626 2.16081 403.781 18.1626 2.16081 403.781
406 1 18.7986 2.87745 406.172 18.7986 2.87745 406.172
409 1 20.5137 2.89583 404.29 20.5137 2.89583 404.29
410 1 21.1503 3.61112 406.676 21.1503 3.61112 406.676
407 1 19.6565 0.672418 405.226 19.6565 0.672418 405.226
404 1 17.9419 0.655187 407.113 17.9419 0.655187 407.113
412 1 22.8672 3.62956 404.789 22.8672 3.62956 404.789
411 1 22.0065 1.40542 405.731 22.0065 1.40542 405.731
415 1 24.3566 2.13832 406.238 24.3566 2.13832 406.238
414 1 23.7198 1.42229 403.847 23.7198 1.42229 403.847
416 1 25.2152 4.36033 405.291 25.2152 4.36033 405.291
413 1 23.5004 4.34385 407.18 23.5004 4.34385 407.18
418 1 26.0714 2.15548 404.354 26.0714 2.15548 404.354
419 1 26.7054 2.87362 406.745 26.7054 2.87362 406.745
420 1 26.9265 4.37201 403.398 26.9265 4.37201 403.398
421 1 27.5615 0.668406 405.799 27.5615 0.668406 405.799
422 1 28.418 2.89325 404.861 28.418 2.89325 404.861
424 1 29.2716 0.687444 403.917 29.2716 0.687444 403.917
426 1 30.7675 3.63024 405.365 30.7675 3.63024 405.365
425 1 29.9113 1.40593 406.308 29.9113 1.40593 406.308
430 1 32.4801 3.64806 403.482 32.4801 3.64806 403.482
428 1 31.6262 1.42716 404.423 31.6262 1.42716 404.423
429 1 32.262 2.14028 406.813 32.262 2.14028 406.813
432 1 33.9756 2.15797 404.925 33.9756 2.15797 404.925
431 1 33.1184 4.36304 405.871 33.1184 4.36304 405.871
435 1 35.4708 0.668549 406.374 35.4708 0.668549 406.374
436 1 36.3266 2.89035 405.428 36.3266 2.89035 405.428
434 1 34.833 4.38129 403.989 34.833 4.38129 403.989
440 1 38.0393 2.9077 403.544 38.0393 2.9077 403.544
438 1 37.1869 0.687272 404.486 37.1869 0.687272 404.486
439 1 37.821 1.40132 406.877 37.821 1.40132 406.877
442 1 39.5344 1.41906 404.988 39.5344 1.41906 404.988
441 1 38.677 3.6238 405.935 38.677 3.6238 405.935
444 1 40.391 3.64264 404.052 40.391 3.64264 404.052
446 1 41.8847 2.15197 405.492 41.8847 2.15197 405.492
445 1 41.0289 4.35738 406.438 41.0289 4.35738 406.438
450 1 43.5975 2.1693 403.608 43.5975 2.1693 403.608
451 1 44.2349 2.88543 405.999 44.2349 2.88543 405.999
448 1 42.7447 4.37631 404.55 42.7447 4.37631 404.55
449 1 43.3789 0.662915 406.941 43.3789 0.662915 406.941
452 1 45.0923 0.680625 405.052 45.0923 0.680625 405.052
454 1 45.9489 2.90422 404.116 45.9489 2.90422 404.116
457 1 48.3025 3.63791 404.613 48.3025 3.63791 404.613
455 1 46.5867 3.61894 406.502 46.5867 3.61894 406.502
456 1 47.4424 1.41353 405.556 47.4424 1.41353 405.556
459 1 49.1551 1.43097 403.671 49.1551 1.43097 403.671
458 1 48.9366 4.35189 407.004 48.9366 4.35189 407.004
460 1 49.7926 2.14696 406.062 49.7926 2.14696 406.062
463 1 51.5063 2.16584 404.179 51.5063 2.16584 404.179
461 1 50.6499 4.36965 405.115 50.6499 4.36965 405.115
464 1 52.1443 2.88045 406.565 52.1443 2.88045 406.565
465 1 52.9999 0.67507 405.618 52.9999 0.67507 405.618
468 1 54.7122 0.692574 403.734 54.7122 0.692574 403.734
466 1 53.8598 2.89948 404.676 53.8598 2.89948 404.676
469 1 55.35 1.40846 406.124 55.35 1.40846 406.124
467 1 54.4942 3.61336 407.067 54.4942 3.61336 407.067
470 1 56.2071 3.63116 405.177 56.2071 3.63116 405.177
472 1 57.0634 1.42736 404.241 57.0634 1.42736 404.241
475 1 59.4168 2.16093 404.737 59.4168 2.16093 404.737
473 1 57.7017 2.14189 406.626 57.7017 2.14189 406.626
474 1 58.5572 4.36397 405.68 58.5572 4.36397 405.68
477 1 60.269 4.38147 403.795 60.269 4.38147 403.795
481 1 62.6202 0.688704 404.302 62.6202 0.688704 404.302
478 1 60.9072 0.66984 406.186 60.9072 0.66984 406.186
479 1 61.7642 2.89253 405.238 61.7642 2.89253 405.238
482 1 63.259 1.40321 406.687 63.259 1.40321 406.687
476 1 60.0517 2.87475 407.128 60.0517 2.87475 407.128
483 1 64.1143 3.62526 405.741 64.1143 3.62526 405.741
486 1 65.8258 3.64265 403.855 65.8258 3.64265 403.855
488 1 67.3212 2.15363 405.298 67.3212 2.15363 405.298
484 1 64.9737 1.42216 404.798 64.9737 1.42216 404.798
487 1 66.4645 4.35848 406.246 66.4645 4.35848 406.246
485 1 65.6091 2.13599 407.188 65.6091 2.13599 407.188
490 1 68.1771 4.37718 404.361 68.1771 4.37718 404.361
493 1 69.6715 2.88619 405.8 69.6715 2.88619 405.8
491 1 68.8165 0.664272 406.746 68.8165 0.664272 406.746
494 1 70.531 0.683011 404.856 70.531 0.683011 404.856
492 1 69.0284 2.16723 403.406 69.0284 2.16723 403.406
496 1 71.3824 2.90327 403.914 71.3824 2.90327 403.914
497 1 72.0221 3.61866 406.303 72.0221 3.61866 406.303
500 1 73.7347 3.63599 404.417 73.7347 3.63599 404.417
498 1 72.8796 1.41332 405.354 72.8796 1.41332 405.354
502 1 74.5886 1.42507 403.459 74.5886 1.42507 403.459
501 1 74.3716 4.35353 406.807 74.3716 4.35353 406.807
503 1 75.2265 2.1484 405.859 75.2265 2.1484 405.859
506 1 76.9346 2.16748 403.974 76.9346 2.16748 403.974
507 1 77.5772 2.88555 406.364 77.5772 2.88555 406.364
504 1 76.082 4.37329 404.919 76.082 4.37329 404.919
508 1 78.4324 0.682457 405.42 78.4324 0.682457 405.42
510 1 79.2901 2.90683 404.477 79.2901 2.90683 404.477
512 1 80.1431 0.700214 403.535 80.1431 0.700214 403.535
514 1 81.6405 3.63728 404.975 81.6405 3.63728 404.975
516 1 82.497 1.43308 404.039 82.497 1.43308 404.039
513 1 80.7843 1.41492 405.923 80.7843 1.41492 405.923
511 1 79.9287 3.61959 406.866 79.9287 3.61959 406.866
517 1 83.1377 2.14761 406.423 83.1377 2.14761 406.423
523 1 86.3442 0.675129 405.979 86.3442 0.675129 405.979
520 1 84.8521 2.16621 404.532 84.8521 2.16621 404.532
518 1 83.9926 4.36935 405.476 83.9926 4.36935 405.476
522 1 85.7037 4.3865 403.59 85.7037 4.3865 403.59
521 1 85.489 2.88017 406.922 85.489 2.88017 406.922
526 1 88.0567 0.693715 404.095 88.0567 0.693715 404.095
528 1 89.5524 3.63047 405.532 89.5524 3.63047 405.532
524 1 87.2009 2.89775 405.031 87.2009 2.89775 405.031
529 1 90.4118 1.42716 404.589 90.4118 1.42716 404.589
527 1 88.6972 1.40858 406.479 88.6972 1.40858 406.479
536 1 94.2572 0.670205 406.537 94.2572 0.670205 406.537
531 1 91.2638 3.64734 403.647 91.2638 3.64734 403.647
533 1 92.7606 2.15887 405.089 92.7606 2.15887 405.089
532 1 91.9039 4.36391 406.036 91.9039 4.36391 406.036
535 1 93.6167 4.38212 404.153 93.6167 4.38212 404.153
530 1 91.0485 2.14157 406.979 91.0485 2.14157 406.979
538 1 95.9719 0.68853 404.647 95.9719 0.68853 404.647
541 1 97.4638 3.62661 406.095 97.4638 3.62661 406.095
540 1 96.8236 2.90842 403.705 96.8236 2.90842 403.705
537 1 95.1123 2.89196 405.59 95.1123 2.89196 405.59
539 1 96.6087 1.40401 407.037 96.6087 1.40401 407.037
546 1 100.676 2.15459 405.644 100.676 2.15459 405.644
544 1 99.1756 3.64582 404.213 99.1756 3.64582 404.213
542 1 98.3206 1.42203 405.148 98.3206 1.42203 405.148
547 1 101.536 4.37875 404.702 101.536 4.37875 404.702
545 1 99.8194 4.36003 406.592 99.8194 4.36003 406.592
553 1 104.741 2.90273 404.258 104.741 2.90273 404.258
550 1 103.028 2.88559 406.146 103.028 2.88559 406.146
554 1 105.38 3.61928 406.644 105.38 3.61928 406.644
549 1 102.393 2.17151 403.754 102.393 2.17151 403.754
551 1 103.885 0.680299 405.198 103.885 0.680299 405.198
548 1 102.172 0.663727 407.09 102.172 0.663727 407.09
560 1 -60.1416 0.641103 409.536 -60.1416 0.641103 409.536
558 1 -61.6362 2.13023 408.09 -61.6362 2.13023 408.09
562 1 -59.2856 2.86462 408.59 -59.2856 2.86462 408.59
559 1 -60.9976 2.84531 410.48 -60.9976 2.84531 410.48
556 1 -62.4924 4.33452 409.035 -62.4924 4.33452 409.035
273 1 -58.4308 0.661071 407.646 -58.4308 0.661071 407.646
565 1 -56.9346 3.59755 409.092 -56.9346 3.59755 409.092
568 1 -55.4393 2.10765 410.539 -55.4393 2.10765 410.539
567 1 -56.0785 1.39274 408.148 -56.0785 1.39274 408.148
564 1 -57.7907 1.37456 410.037 -57.7907 1.37456 410.037
563 1 -58.6466 3.57887 410.981 -58.6466 3.57887 410.981
573 1 -52.23 0.63531 410.099 -52.23 0.63531 410.099
571 1 -53.7254 2.12407 408.653 -53.7254 2.12407 408.653
283 1 -52.8671 4.3446 407.71 -52.8671 4.3446 407.71
569 1 -54.5827 4.32985 409.595 -54.5827 4.32985 409.595
574 1 -51.3722 2.85722 409.157 -51.3722 2.85722 409.157
572 1 -53.0873 2.84081 411.042 -53.0873 2.84081 411.042
576 1 -50.5144 0.651416 408.214 -50.5144 0.651416 408.214
578 1 -49.0194 3.59104 409.66 -49.0194 3.59104 409.66
289 1 -49.6566 2.87442 407.272 -49.6566 2.87442 407.272
580 1 -48.1619 1.38598 408.717 -48.1619 1.38598 408.717
577 1 -49.8771 1.36871 410.603 -49.8771 1.36871 410.603
293 1 -47.3046 3.60892 407.774 -47.3046 3.60892 407.774
299 1 -44.0944 2.13678 407.331 -44.0944 2.13678 407.331
583 1 -45.809 2.11936 409.218 -45.809 2.11936 409.218
585 1 -44.9516 4.34192 408.275 -44.9516 4.34192 408.275
582 1 -46.6665 4.32435 410.162 -46.6665 4.32435 410.162
586 1 -44.3139 0.629772 410.663 -44.3139 0.629772 410.663
589 1 -42.599 0.647167 408.777 -42.599 0.647167 408.777
591 1 -41.104 3.5849 410.221 -41.104 3.5849 410.221
303 1 -41.742 2.86929 407.833 -41.742 2.86929 407.833
587 1 -43.4565 2.85211 409.72 -43.4565 2.85211 409.72
592 1 -40.2464 1.37986 409.278 -40.2464 1.37986 409.278