ITEM: TIMESTEP
0
ITEM: NUMBER OF ATOMS
4630
ITEM: BOX BOUNDS xy xz yz pp pp pp
-6.3566364726219931e+01 1.0658539657441993e+02 0.0000000000000000e+00
0.0000000000000000e+00 4.4274527100805940e+00 0.0000000000000000e+00
3.8000000000000000e+02 5.0000000000000000e+02 0.0000000000000000e+00
ITEM: ATOMS id type x y z xu yu zu
27 1 -45.7783 2.07841 399.592 -45.7783 2.07841 399.592
36 1 -40.1596 1.33714 399.65 -40.1596 1.33714 399.65
31 1 -43.3844 2.77404 400.031 -43.3844 2.77404 400.031
22 1 -48.9838 3.52624 399.998 -48.9838 3.52624 399.998
20 1 -49.8648 1.30415 400.843 -49.8648 1.30415 400.843
40 1 -37.7677 2.03408 400.091 -37.7677 2.03408 400.091
34 1 -41.0178 3.53546 400.484 -41.0178 3.53546 400.484
17 1 -52.2354 0.553712 400.396 -52.2354 0.553712 400.396
9 1 -57.8201 1.2451 400.307 -57.8201 1.2451 400.307
43 1 -35.402 2.79626 400.545 -35.402 2.79626 400.545
12 1 -55.4803 2.05495 400.789 -55.4803 2.05495 400.789
5 1 -60.2058 0.568847 399.844 -60.2058 0.568847 399.844
29 1 -44.2478 0.545306 400.884 -44.2478 0.545306 400.884
853 1 -57.2557 2.70994 414.952 -57.2557 2.70994 414.952
873 1 -46.026 1.23439 415.081 -46.026 1.23439 415.081
865 1 -50.1342 0.490344 416.454 -50.1342 0.490344 416.454
1174 1 -37.3951 1.95691 418.019 -37.3951 1.95691 418.019
883 1 -40.41 0.495257 415.144 -40.41 0.495257 415.144
863 1 -51.6423 1.9732 415.016 -51.6423 1.9732 415.016
315 1 -35.6277 1.28691 403.833 -35.6277 1.28691 403.833
307 1 -40.5997 2.75278 406.147 -40.5997 2.75278 406.147
1150 1 -51.8666 0.480789 418.329 -51.8666 0.480789 418.329
855 1 -55.7481 1.22739 416.39 -55.7481 1.22739 416.39
310 1 -38.8664 2.76319 404.277 -38.8664 2.76319 404.277
871 1 -46.8929 3.44378 416.018 -46.8929 3.44378 416.018
16 1 -53.0977 2.75207 401.251 -53.0977 2.75207 401.251
309 1 -39.0913 1.26988 407.582 -39.0913 1.26988 407.582
1156 1 -48.6262 3.43483 417.892 -48.6262 3.43483 417.892
867 1 -49.2676 2.70861 415.517 -49.2676 2.70861 415.517
1159 1 -46.2517 4.17008 418.392 -46.2517 4.17008 418.392
1168 1 -40.6361 3.43104 418.456 -40.6361 3.43104 418.456
1170 1 -39.7693 1.22169 417.519 -39.7693 1.22169 417.519
594 1 -39.958 3.47908 408.521 -39.958 3.47908 408.521
37 1 -39.5068 2.03664 401.927 -39.5068 2.03664 401.927
851 1 -58.1214 0.491101 415.89 -58.1214 0.491101 415.89
857 1 -54.8823 3.44618 415.453 -54.8823 3.44618 415.453
592 1 -40.8246 1.26088 409.458 -40.8246 1.26088 409.458
849 1 -58.9872 2.69977 416.828 -58.9872 2.69977 416.828
877 1 -43.6513 1.96946 415.581 -43.6513 1.96946 415.581
1143 1 -56.6139 3.43606 417.328 -56.6139 3.43606 417.328
1140 1 -58.3455 3.42599 419.204 -58.3455 3.42599 419.204
845 1 -61.3604 1.96352 416.328 -61.3604 1.96352 416.328
875 1 -44.5182 4.17886 416.518 -44.5182 4.17886 416.518
886 1 -38.6765 0.504117 413.27 -38.6765 0.504117 413.27
891 1 -35.4357 3.4576 412.832 -35.4357 3.4576 412.832
39 1 -38.0042 0.547399 403.327 -38.0042 0.547399 403.327
1177 1 -35.8876 0.474045 419.456 -35.8876 0.474045 419.456
1167 1 -41.5028 1.21293 419.393 -41.5028 1.21293 419.393
8 1 -58.696 3.50018 401.264 -58.696 3.50018 401.264
869 1 -47.7596 1.22564 416.955 -47.7596 1.22564 416.955
1136 1 -60.7188 2.68978 418.704 -60.7188 2.68978 418.704
1162 1 -44.7438 2.68708 419.83 -44.7438 2.68708 419.83
15 1 -53.9683 0.553727 402.236 -53.9683 0.553727 402.236
280 1 -55.7053 0.542283 404.087 -55.7053 0.542283 404.087
277 1 -57.4502 0.544785 405.951 -57.4502 0.544785 405.951
273 1 -59.1834 0.534763 407.822 -59.1834 0.534763 407.822
560 1 -60.9127 0.522153 409.699 -60.9127 0.522153 409.699
557 1 -62.6435 0.511183 411.576 -62.6435 0.511183 411.576
26 1 -45.9839 0.557924 402.766 -45.9839 0.557924 402.766
294 1 -47.7212 0.550454 404.649 -47.7212 0.550454 404.649
291 1 -49.4553 0.536793 406.521 -49.4553 0.536793 406.521
576 1 -51.1892 0.526751 408.394 -51.1892 0.526751 408.394
573 1 -52.9247 0.519488 410.266 -52.9247 0.519488 410.266
570 1 -54.6583 0.511174 412.139 -54.6583 0.511174 412.139
854 1 -56.39 0.501312 414.014 -56.39 0.501312 414.014
305 1 -41.4652 0.534887 407.084 -41.4652 0.534887 407.084
589 1 -43.1989 0.525809 408.959 -43.1989 0.525809 408.959
586 1 -44.9327 0.516709 410.833 -44.9327 0.516709 410.833
872 1 -46.6667 0.50789 412.707 -46.6667 0.50789 412.707
599 1 -36.9431 0.513115 411.395 -36.9431 0.513115 411.395
1132 1 -63.0921 1.95367 418.205 -63.0921 1.95367 418.205
4 1 -60.4771 3.52429 403.058 -60.4771 3.52429 403.058
268 1 -62.1974 3.49857 404.938 -62.1974 3.49857 404.938
1152 1 -51.0005 2.69935 417.391 -51.0005 2.69935 417.391
19 1 -50.7421 3.49561 401.77 -50.7421 3.49561 401.77
286 1 -52.466 3.48981 403.633 -52.466 3.48981 403.633
282 1 -54.1995 3.4875 405.515 -54.1995 3.4875 405.515
279 1 -55.9401 3.48531 407.387 -55.9401 3.48531 407.387
565 1 -57.6744 3.47779 409.26 -57.6744 3.47779 409.26
563 1 -59.4051 3.46685 411.137 -59.4051 3.46685 411.137
846 1 -61.1362 3.45616 413.014 -61.1362 3.45616 413.014
32 1 -42.7448 3.50616 402.353 -42.7448 3.50616 402.353
300 1 -44.4808 3.50207 404.218 -44.4808 3.50207 404.218
297 1 -46.2153 3.49252 406.086 -46.2153 3.49252 406.086
293 1 -47.9482 3.48262 407.959 -47.9482 3.48262 407.959
578 1 -49.6821 3.47305 409.833 -49.6821 3.47305 409.833
575 1 -51.4168 3.46474 411.705 -51.4168 3.46474 411.705
860 1 -53.1503 3.45596 413.578 -53.1503 3.45596 413.578
591 1 -41.6915 3.47004 410.395 -41.6915 3.47004 410.395
588 1 -43.4251 3.46114 412.27 -43.4251 3.46114 412.27
874 1 -45.159 3.45241 414.144 -45.159 3.45241 414.144
10 1 -57.2066 2.01245 402.658 -57.2066 2.01245 402.658
274 1 -58.9633 2.03203 404.506 -58.9633 2.03203 404.506
271 1 -60.6916 2.01807 406.381 -60.6916 2.01807 406.381
558 1 -62.4195 2.00414 408.26 -62.4195 2.00414 408.26
24 1 -47.5106 2.03356 401.36 -47.5106 2.03356 401.36
21 1 -49.2354 2.03003 403.208 -49.2354 2.03003 403.208
288 1 -50.9608 2.01737 405.085 -50.9608 2.01737 405.085
285 1 -52.6952 2.00773 406.958 -52.6952 2.00773 406.958
571 1 -54.4326 2.00201 408.828 -54.4326 2.00201 408.828
568 1 -56.1664 1.99421 410.7 -56.1664 1.99421 410.7
852 1 -57.8977 1.98402 412.576 -57.8977 1.98402 412.576
848 1 -59.6289 1.97363 414.452 -59.6289 1.97363 414.452
306 1 -41.2424 2.02573 403.772 -41.2424 2.02573 403.772
302 1 -42.9736 2.01721 405.645 -42.9736 2.01721 405.645
299 1 -44.7067 2.00895 407.521 -44.7067 2.00895 407.521
583 1 -46.4403 1.99974 409.396 -46.4403 1.99974 409.396
581 1 -48.1745 1.99063 411.27 -48.1745 1.99063 411.27
866 1 -49.9089 1.98211 413.143 -49.9089 1.98211 413.143
880 1 -41.9176 1.9782 413.707 -41.9176 1.9782 413.707
312 1 -37.3589 1.27858 405.706 -37.3589 1.27858 405.706
2 1 -61.998 0.584034 401.623 -61.998 0.584034 401.623
13 1 -54.8297 2.7589 403.136 -54.8297 2.7589 403.136
278 1 -56.5761 2.75698 405.014 -56.5761 2.75698 405.014
275 1 -58.3175 2.75441 406.882 -58.3175 2.75441 406.882
562 1 -60.0476 2.74198 408.76 -60.0476 2.74198 408.76
559 1 -61.7778 2.73022 410.638 -61.7778 2.73022 410.638
1166 1 -42.3695 3.42226 420.33 -42.3695 3.42226 420.33
889 1 -36.3023 1.23939 413.77 -36.3023 1.23939 413.77
28 1 -45.1209 2.77585 401.868 -45.1209 2.77585 401.868
296 1 -46.8583 2.76663 403.712 -46.8583 2.76663 403.712
292 1 -48.5894 2.75733 405.584 -48.5894 2.75733 405.584
289 1 -50.3216 2.74555 407.459 -50.3216 2.74555 407.459
574 1 -52.0569 2.73701 409.331 -52.0569 2.73701 409.331
572 1 -53.7919 2.72939 411.203 -53.7919 2.72939 411.203
856 1 -55.5243 2.72011 413.077 -55.5243 2.72011 413.077
303 1 -42.3326 2.74372 408.021 -42.3326 2.74372 408.021
587 1 -44.0659 2.73489 409.896 -44.0659 2.73489 409.896
584 1 -45.7997 2.72597 411.77 -45.7997 2.72597 411.77
870 1 -47.5338 2.71731 413.644 -47.5338 2.71731 413.644
6 1 -59.5959 1.30715 402.136 -59.5959 1.30715 402.136
270 1 -61.3369 1.29669 403.993 -61.3369 1.29669 403.993
267 1 -63.0599 1.2778 405.881 -63.0599 1.2778 405.881
890 1 -35.6616 1.96576 416.144 -35.6616 1.96576 416.144
18 1 -51.5947 1.28175 402.717 -51.5947 1.28175 402.717
284 1 -53.33 1.27801 404.587 -53.33 1.27801 404.587
281 1 -55.0707 1.27323 406.455 -55.0707 1.27323 406.455
567 1 -56.8085 1.2689 408.324 -56.8085 1.2689 408.324
564 1 -58.54 1.25871 410.199 -58.54 1.25871 410.199
561 1 -60.2706 1.24771 412.076 -60.2706 1.24771 412.076
844 1 -62.0019 1.23733 413.953 -62.0019 1.23733 413.953
33 1 -41.8976 1.29454 401.414 -41.8976 1.29454 401.414
30 1 -43.6186 1.28617 403.267 -43.6186 1.28617 403.267
298 1 -45.3482 1.28325 405.146 -45.3482 1.28325 405.146
295 1 -47.0813 1.27413 407.022 -47.0813 1.27413 407.022
580 1 -48.8149 1.26374 408.896 -48.8149 1.26374 408.896
577 1 -50.5496 1.25499 410.768 -50.5496 1.25499 410.768
862 1 -52.2838 1.24673 412.641 -52.2838 1.24673 412.641
590 1 -42.5582 1.2519 411.333 -42.5582 1.2519 411.333
876 1 -44.292 1.24304 413.207 -44.292 1.24304 413.207
1163 1 -43.8772 0.477781 418.893 -43.8772 0.477781 418.893
1153 1 -50.3587 3.4254 419.766 -50.3587 3.4254 419.766
311 1 -38.2242 3.48872 406.647 -38.2242 3.48872 406.647
42 1 -36.2823 0.555146 401.475 -36.2823 0.555146 401.475
1135 1 -61.5847 0.47112 419.642 -61.5847 0.47112 419.642
1171 1 -39.1285 1.94813 419.893 -39.1285 1.94813 419.893
1139 1 -59.2113 1.20728 420.142 -59.2113 1.20728 420.142
601 1 -36.0765 2.73133 410.457 -36.0765 2.73133 410.457
313 1 -36.4891 3.49871 404.771 -36.4891 3.49871 404.771
858 1 -54.0164 1.23741 414.515 -54.0164 1.23741 414.515
868 1 -48.4008 0.499298 414.58 -48.4008 0.499298 414.58
1147 1 -54.2404 4.17227 417.828 -54.2404 4.17227 417.828
843 1 -62.8677 3.44605 414.891 -62.8677 3.44605 414.891
593 1 -40.1839 1.98707 411.832 -40.1839 1.98707 411.832
308 1 -39.7326 0.543874 405.206 -39.7326 0.543874 405.206
861 1 -52.5085 4.18217 415.953 -52.5085 4.18217 415.953
1158 1 -47.1182 1.95184 419.329 -47.1182 1.95184 419.329
884 1 -39.5432 2.7134 414.207 -39.5432 2.7134 414.207
881 1 -41.2768 2.7046 416.081 -41.2768 2.7046 416.081
885 1 -38.9025 3.4398 416.581 -38.9025 3.4398 416.581
859 1 -53.3745 1.96353 416.891 -53.3745 1.96353 416.891
596 1 -38.4506 1.99602 409.958 -38.4506 1.99602 409.958
879 1 -42.1437 0.486515 417.018 -42.1437 0.486515 417.018
1172 1 -38.2618 4.16624 418.956 -38.2618 4.16624 418.956
1154 1 -49.4925 1.21645 418.829 -49.4925 1.21645 418.829
887 1 -38.0358 1.23049 415.644 -38.0358 1.23049 415.644
597 1 -37.8098 2.7223 412.332 -37.8098 2.7223 412.332
1161 1 -45.385 1.96078 417.455 -45.385 1.96078 417.455
1138 1 -59.853 0.481023 417.766 -59.853 0.481023 417.766
1149 1 -52.7326 2.68959 419.266 -52.7326 2.68959 419.266
41 1 -37.1301 2.76698 402.413 -37.1301 2.76698 402.413
888 1 -37.1691 3.44865 414.707 -37.1691 3.44865 414.707
1165 1 -43.0105 2.69589 417.955 -43.0105 2.69589 417.955
1141 1 -57.4797 1.21728 418.266 -57.4797 1.21728 418.266
1145 1 -55.1062 1.95352 418.766 -55.1062 1.95352 418.766
600 1 -36.7177 2.00501 408.083 -36.7177 2.00501 408.083
1148 1 -53.5985 0.470897 420.204 -53.5985 0.470897 420.204
882 1 -41.0508 4.19633 412.77 -41.0508 4.19633 412.77
1157 1 -47.9846 4.16094 420.267 -47.9846 4.16094 420.267
1144 1 -55.9721 4.16222 419.704 -55.9721 4.16222 419.704
602 1 -35.2098 0.522251 409.52 -35.2098 0.522251 409.52
1131 1 -63.3165 0.461354 421.518 -63.3165 0.461354 421.518
1755 1 -35.6982 2.64452 428.455 -35.6982 2.64452 428.455
1460 1 -40.2207 2.66566 424.142 -40.2207 2.66566 424.142
2308 1 -49.9721 3.33519 437.769 -49.9721 3.33519 437.769
2316 1 -45.001 1.87168 435.455 -45.001 1.87168 435.455
2312 1 -47.5987 4.07101 438.269 -47.5987 4.07101 438.269
1464 1 -37.8467 3.40096 424.642 -37.8467 3.40096 424.642
1461 1 -39.3542 0.456398 423.205 -39.3542 0.456398 423.205
2039 1 -38.522 3.35248 434.58 -38.522 3.35248 434.58
2613 1 -40.4785 1.8508 439.768 -40.4785 1.8508 439.768
1467 1 -35.4726 4.13629 425.143 -35.4726 4.13629 425.143
2603 1 -46.0911 2.58825 439.706 -46.0911 2.58825 439.706
1443 1 -49.7169 4.15143 422.142 -49.7169 4.15143 422.142
1748 1 -39.5796 3.39198 426.517 -39.5796 3.39198 426.517
2023 1 -47.3745 1.13593 434.956 -47.3745 1.13593 434.956
2310 1 -48.4645 1.85246 439.207 -48.4645 1.85246 439.207
1151 1 -51.2248 1.20682 420.704 -51.2248 1.20682 420.704
2303 1 -53.2113 0.380747 438.207 -53.2113 0.380747 438.207
2299 1 -55.5847 4.07226 437.708 -55.5847 4.07226 437.708
2033 1 -41.7616 0.398411 435.017 -41.7616 0.398411 435.017
1433 1 -55.3303 0.460929 422.079 -55.3303 0.460929 422.079
1430 1 -57.062 0.450994 423.955 -57.062 0.450994 423.955
1426 1 -58.7938 0.441117 425.831 -58.7938 0.441117 425.831
1713 1 -60.5255 0.431297 427.707 -60.5255 0.431297 427.707
1710 1 -62.2572 0.421525 429.582 -62.2572 0.421525 429.582
2330 1 -36.3732 2.59599 438.393 -36.3732 2.59599 438.393
1160 1 -45.6103 0.468839 420.767 -45.6103 0.468839 420.767
1447 1 -47.343 0.459569 422.642 -47.343 0.459569 422.642
1444 1 -49.0752 0.450024 424.517 -49.0752 0.450024 424.517
1730 1 -50.8072 0.440319 426.392 -50.8072 0.440319 426.392
1727 1 -52.5391 0.430545 428.268 -52.5391 0.430545 428.268
1724 1 -54.2709 0.42075 430.143 -54.2709 0.42075 430.143
2008 1 -56.0026 0.410956 432.019 -56.0026 0.410956 432.019
2006 1 -57.7342 0.401173 433.895 -57.7342 0.401173 433.895
1458 1 -41.0872 0.447424 425.08 -41.0872 0.447424 425.08
1743 1 -42.8198 0.438254 426.954 -42.8198 0.438254 426.954
1740 1 -44.5522 0.428894 428.83 -44.5522 0.428894 428.83
2026 1 -46.2843 0.419387 430.705 -46.2843 0.419387 430.705
2022 1 -48.0162 0.409785 432.58 -48.0162 0.409785 432.58
2019 1 -49.748 0.400127 434.456 -49.748 0.400127 434.456
2309 1 -49.1062 1.12629 436.831 -49.1062 1.12629 436.831
1137 1 -60.0772 3.41605 421.08 -60.0772 3.41605 421.08
1421 1 -61.8089 3.40623 422.956 -61.8089 3.40623 422.956
1439 1 -52.0908 3.41564 421.642 -52.0908 3.41564 421.642
1435 1 -53.8226 3.40575 423.517 -53.8226 3.40575 423.517
1432 1 -55.5544 3.39586 425.393 -55.5544 3.39586 425.393
1719 1 -57.2861 3.38599 427.268 -57.2861 3.38599 427.268
1716 1 -59.0179 3.37616 429.144 -59.0179 3.37616 429.144
2001 1 -60.7495 3.36637 431.02 -60.7495 3.36637 431.02
1998 1 -62.4812 3.35661 432.896 -62.4812 3.35661 432.896
2323 1 -40.2541 3.34307 436.455 -40.2541 3.34307 436.455
1453 1 -44.1025 3.41331 422.205 -44.1025 3.41331 422.205
1450 1 -45.8352 3.40409 424.079 -45.8352 3.40409 424.079
1446 1 -47.5675 3.39462 425.954 -47.5675 3.39462 425.954
1732 1 -49.2996 3.38499 427.83 -49.2996 3.38499 427.83
1729 1 -51.0314 3.37528 429.705 -51.0314 3.37528 429.705
2014 1 -52.7632 3.36554 431.581 -52.7632 3.36554 431.581
2011 1 -54.4949 3.35577 433.457 -54.4949 3.35577 433.457
1745 1 -41.3122 3.38282 428.392 -41.3122 3.38282 428.392
1742 1 -43.0446 3.37349 430.267 -43.0446 3.37349 430.267
2028 1 -44.7767 3.36403 432.142 -44.7767 3.36403 432.142
2025 1 -46.5086 3.35446 434.018 -46.5086 3.35446 434.018
1427 1 -58.5696 1.93354 422.517 -58.5696 1.93354 422.517
1424 1 -60.3014 1.92367 424.393 -60.3014 1.92367 424.393
1711 1 -62.0331 1.91388 426.269 -62.0331 1.91388 426.269
2322 1 -41.1201 1.12461 437.393 -41.1201 1.12461 437.393
1750 1 -38.072 1.90911 427.955 -38.072 1.90911 427.955
1155 1 -48.8508 1.9425 421.204 -48.8508 1.9425 421.204
1441 1 -50.583 1.93285 423.079 -50.583 1.93285 423.079
1438 1 -52.3149 1.92306 424.955 -52.3149 1.92306 424.955
1725 1 -54.0467 1.91322 426.83 -54.0467 1.91322 426.83
1722 1 -55.7785 1.90339 428.706 -55.7785 1.90339 428.706
1718 1 -57.5102 1.89357 430.582 -57.5102 1.89357 430.582
2003 1 -59.2419 1.88377 432.457 -59.2419 1.88377 432.457
2000 1 -60.9735 1.87401 434.333 -60.9735 1.87401 434.333
1459 1 -40.8618 1.93932 421.767 -40.8618 1.93932 421.767
1455 1 -42.5948 1.93035 423.642 -42.5948 1.93035 423.642
1452 1 -44.3275 1.92116 425.517 -44.3275 1.92116 425.517
1737 1 -46.0598 1.91176 427.392 -46.0598 1.91176 427.392
1735 1 -47.7919 1.9022 429.267 -47.7919 1.9022 429.267
2020 1 -49.5238 1.89254 431.143 -49.5238 1.89254 431.143
2017 1 -51.2556 1.88284 433.018 -51.2556 1.88284 433.018
2034 1 -41.537 1.89065 431.705 -41.537 1.89065 431.705
2031 1 -43.2691 1.88122 433.58 -43.2691 1.88122 433.58
2029 1 -44.1351 4.09019 434.518 -44.1351 4.09019 434.518
1146 1 -54.4644 2.67964 421.142 -54.4644 2.67964 421.142
1431 1 -56.1962 2.66968 423.017 -56.1962 2.66968 423.017
1428 1 -57.9279 2.65977 424.893 -57.9279 2.65977 424.893
1715 1 -59.6596 2.64993 426.769 -59.6596 2.64993 426.769
1712 1 -61.3914 2.64013 428.645 -61.3914 2.64013 428.645
1708 1 -63.1231 2.63038 430.52 -63.1231 2.63038 430.52
1747 1 -39.8046 1.89996 429.83 -39.8046 1.89996 429.83
1449 1 -46.4767 2.67797 421.704 -46.4767 2.67797 421.704
1445 1 -48.2091 2.66855 423.579 -48.2091 2.66855 423.579
1442 1 -49.9413 2.65891 425.455 -49.9413 2.65891 425.455
1728 1 -51.6732 2.64916 427.33 -51.6732 2.64916 427.33
1726 1 -53.405 2.63937 429.206 -53.405 2.63937 429.206
2010 1 -55.1367 2.62958 431.081 -55.1367 2.62958 431.081
2007 1 -56.8684 2.61979 432.957 -56.8684 2.61979 432.957
1456 1 -41.9535 2.65659 426.017 -41.9535 2.65659 426.017
1741 1 -43.686 2.64732 427.892 -43.686 2.64732 427.892
1738 1 -45.4182 2.63788 429.767 -45.4182 2.63788 429.767
2024 1 -47.1503 2.62832 431.643 -47.1503 2.62832 431.643
2021 1 -48.8821 2.61869 433.518 -48.8821 2.61869 433.518
2035 1 -40.8956 2.61686 434.08 -40.8956 2.61686 434.08
1754 1 -36.3392 1.91811 426.08 -36.3392 1.91811 426.08
1423 1 -60.943 1.1974 422.018 -60.943 1.1974 422.018
1420 1 -62.6748 1.18762 423.894 -62.6748 1.18762 423.894
2044 1 -35.2822 1.879 434.142 -35.2822 1.879 434.142
1437 1 -52.9567 1.19698 422.579 -52.9567 1.19698 422.579
1434 1 -54.6885 1.18708 424.455 -54.6885 1.18708 424.455
1721 1 -56.4203 1.1772 426.331 -56.4203 1.1772 426.331
1717 1 -58.152 1.16735 428.206 -58.152 1.16735 428.206
1714 1 -59.8837 1.15754 430.082 -59.8837 1.15754 430.082
1999 1 -61.6154 1.14776 431.958 -61.6154 1.14776 431.958
1997 1 -63.347 1.13802 433.834 -63.347 1.13802 433.834
1164 1 -43.2361 1.20409 421.267 -43.2361 1.20409 421.267
1451 1 -44.9689 1.19501 423.142 -44.9689 1.19501 423.142
1448 1 -46.7014 1.18565 425.017 -46.7014 1.18565 425.017
1734 1 -48.4336 1.1761 426.892 -48.4336 1.1761 426.892
1731 1 -50.1655 1.16642 428.767 -50.1655 1.16642 428.767
2016 1 -51.8973 1.15669 430.643 -51.8973 1.15669 430.643
2012 1 -53.6291 1.14693 432.519 -53.6291 1.14693 432.519
2009 1 -55.3607 1.13717 434.394 -55.3607 1.13717 434.394
1746 1 -40.4459 1.17369 427.455 -40.4459 1.17369 427.455
1744 1 -42.1784 1.16445 429.329 -42.1784 1.16445 429.329
2030 1 -43.9106 1.15505 431.205 -43.9106 1.15505 431.205
2027 1 -45.6427 1.14553 433.08 -45.6427 1.14553 433.08
2325 1 -39.3881 1.13406 435.517 -39.3881 1.13406 435.517
1749 1 -38.9384 4.11828 428.892 -38.9384 4.11828 428.892
1425 1 -59.4355 4.14232 423.455 -59.4355 4.14232 423.455
1736 1 -46.9259 4.12072 428.33 -46.9259 4.12072 428.33
1142 1 -56.8379 1.94349 420.642 -56.8379 1.94349 420.642
1720 1 -56.6444 4.1122 429.644 -56.6444 4.1122 429.644
2005 1 -58.376 4.10239 431.519 -58.376 4.10239 431.519
2002 1 -60.1077 4.09261 433.395 -60.1077 4.09261 433.395
1169 1 -39.9952 4.15746 420.83 -39.9952 4.15746 420.83
1723 1 -54.9126 4.12203 427.768 -54.9126 4.12203 427.768
1440 1 -51.449 4.1417 424.017 -51.449 4.1417 424.017
1733 1 -48.6579 4.1111 430.205 -48.6579 4.1111 430.205
2018 1 -50.3897 4.10142 432.081 -50.3897 4.10142 432.081
2015 1 -52.1215 4.09171 433.956 -52.1215 4.09171 433.956
2036 1 -40.6708 4.10905 430.767 -40.6708 4.10905 430.767
2032 1 -42.4031 4.09967 432.642 -42.4031 4.09967 432.642
2326 1 -38.7466 1.8603 437.893 -38.7466 1.8603 437.893
1752 1 -37.2056 4.12735 427.017 -37.2056 4.12735 427.017
1457 1 -41.7284 4.14859 422.705 -41.7284 4.14859 422.705
2043 1 -35.9234 1.15264 431.767 -35.9234 1.15264 431.767
2286 1 -62.7051 1.86426 436.209 -62.7051 1.86426 436.209
2319 1 -42.8519 1.11507 439.268 -42.8519 1.11507 439.268
1436 1 -53.1808 4.13187 425.892 -53.1808 4.13187 425.892
1422 1 -61.1672 4.1325 425.331 -61.1672 4.1325 425.331
1173 1 -37.621 0.46524 421.331 -37.621 0.46524 421.331
2293 1 -58.8239 1.11767 438.146 -58.8239 1.11767 438.146
2289 1 -61.1973 0.381661 437.646 -61.1973 0.381661 437.646
2295 1 -57.3162 4.06254 439.583 -57.3162 4.06254 439.583
1465 1 -36.9801 1.19168 423.705 -36.9801 1.19168 423.705
2315 1 -45.2253 0.379325 438.768 -45.2253 0.379325 438.768
2331 1 -36.1484 4.08809 435.08 -36.1484 4.08809 435.08
2297 1 -56.4504 1.85367 438.646 -56.4504 1.85367 438.646
2324 1 -39.6126 4.06928 438.83 -39.6126 4.06928 438.83
2306 1 -50.8379 1.11663 438.707 -50.8379 1.11663 438.707
2285 1 -62.9288 0.37193 439.522 -62.9288 0.37193 439.522
1462 1 -38.7131 1.18276 425.58 -38.7131 1.18276 425.58
1751 1 -37.4309 2.63544 430.33 -37.4309 2.63544 430.33
2329 1 -37.0145 1.8697 436.017 -37.0145 1.8697 436.017
2042 1 -36.7897 3.36177 432.705 -36.7897 3.36177 432.705
2041 1 -37.6559 1.14342 433.642 -37.6559 1.14342 433.642
2593 1 -51.7036 3.32553 439.645 -51.7036 3.32553 439.645
2328 1 -37.2392 0.377542 439.33 -37.2392 0.377542 439.33
2301 1 -54.077 2.58963 439.145 -54.077 2.58963 439.145
1466 1 -36.1135 3.40983 422.768 -36.1135 3.40983 422.768
2298 1 -56.2265 3.34602 435.332 -56.2265 3.34602 435.332
2321 1 -41.986 3.33357 438.33 -41.986 3.33357 438.33
2313 1 -46.7328 1.86209 437.331 -46.7328 1.86209 437.331
2294 1 -57.9581 3.33627 437.208 -57.9581 3.33627 437.208
2304 1 -52.3455 2.59932 437.269 -52.3455 2.59932 437.269
2300 1 -54.7189 1.86339 436.77 -54.7189 1.86339 436.77
2290 1 -60.3316 2.60026 436.708 -60.3316 2.60026 436.708
2318 1 -43.4935 0.3889 436.893 -43.4935 0.3889 436.893
2327 1 -37.8806 4.07874 436.955 -37.8806 4.07874 436.955
2004 1 -58.6 2.61001 434.833 -58.6 2.61001 434.833
2013 1 -52.9873 1.87312 434.894 -52.9873 1.87312 434.894
2288 1 -61.8393 4.08286 435.271 -61.8393 4.08286 435.271
2037 1 -40.0295 0.407829 433.142 -40.0295 0.407829 433.142
1739 1 -45.1937 4.13021 426.454 -45.1937 4.13021 426.454
1753 1 -36.5645 0.426275 429.392 -36.5645 0.426275 429.392
2307 1 -50.6138 2.60901 435.394 -50.6138 2.60901 435.394
2314 1 -45.867 4.08062 436.393 -45.867 4.08062 436.393
2040 1 -38.2971 0.417124 431.267 -38.2971 0.417124 431.267
2320 1 -42.6276 2.60739 435.955 -42.6276 2.60739 435.955
2292 1 -59.4658 0.391408 435.771 -59.4658 0.391408 435.771
2311 1 -48.2404 3.34484 435.893 -48.2404 3.34484 435.893
2302 1 -53.8531 4.08198 435.832 -53.8531 4.08198 435.832
2296 1 -57.0923 1.12741 436.27 -57.0923 1.12741 436.27
1463 1 -38.4876 2.67456 422.268 -38.4876 2.67456 422.268
2287 1 -62.0631 2.59052 438.584 -62.0631 2.59052 438.584
2291 1 -59.6896 3.32653 439.084 -59.6896 3.32653 439.084
2317 1 -44.3594 2.59785 437.831 -44.3594 2.59785 437.831
2038 1 -39.1633 2.62622 432.205 -39.1633 2.62622 432.205
2305 1 -51.4797 0.390441 436.332 -51.4797 0.390441 436.332
2332 1 -35.5072 0.386954 437.455 -35.5072 0.386954 437.455
1709 1 -62.899 4.12274 427.207 -62.899 4.12274 427.207
1468 1 -35.2469 1.20051 421.831 -35.2469 1.20051 421.831
1454 1 -43.4612 4.13951 424.579 -43.4612 4.13951 424.579
1429 1 -57.7038 4.15223 421.58 -57.7038 4.15223 421.58
1133 1 -62.4506 2.67995 420.58 -62.4506 2.67995 420.58
1175 1 -36.7543 2.68337 420.393 -36.7543 2.68337 420.393
2616 1 -38.3295 1.09425 443.581 -38.3295 1.09425 443.581
2901 1 -40.061 1.08466 445.456 -40.061 1.08466 445.456
2907 1 -36.8221 4.03897 445.019 -36.8221 4.03897 445.019
3194 1 -37.9117 0.328091 449.27 -37.9117 0.328091 449.27
2587 1 -54.9428 0.37106 440.083 -54.9428 0.37106 440.083
2597 1 -49.3303 4.06137 440.144 -49.3303 4.06137 440.144
2584 1 -56.6742 0.361388 441.959 -56.6742 0.361388 441.959
2581 1 -58.4056 0.351734 443.835 -58.4056 0.351734 443.835
2868 1 -60.1369 0.34209 445.71 -60.1369 0.34209 445.71
2865 1 -61.8682 0.332446 447.586 -61.8682 0.332446 447.586
2601 1 -46.9569 0.369714 440.644 -46.9569 0.369714 440.644
2598 1 -48.6884 0.360091 442.52 -48.6884 0.360091 442.52
2885 1 -50.4199 0.35048 444.396 -50.4199 0.35048 444.396
2882 1 -52.1512 0.340905 446.271 -52.1512 0.340905 446.271
2879 1 -53.8826 0.331383 448.147 -53.8826 0.331383 448.147
2612 1 -40.7027 0.35848 443.081 -40.7027 0.35848 443.081
2898 1 -42.4342 0.348879 444.957 -42.4342 0.348879 444.957
2895 1 -44.1656 0.339262 446.832 -44.1656 0.339262 446.832
3180 1 -45.8969 0.329659 448.708 -45.8969 0.329659 448.708
2576 1 -61.4211 3.31681 440.96 -61.4211 3.31681 440.96
2574 1 -63.1525 3.3071 442.835 -63.1525 3.3071 442.835
2589 1 -53.4351 3.31587 441.521 -53.4351 3.31587 441.521
2586 1 -55.1666 3.30624 443.396 -55.1666 3.30624 443.396
2874 1 -56.8979 3.29664 445.272 -56.8979 3.29664 445.272
2871 1 -58.6292 3.28706 447.148 -58.6292 3.28706 447.148
3155 1 -60.3605 3.27749 449.024 -60.3605 3.27749 449.024
2607 1 -43.7177 3.32401 440.206 -43.7177 3.32401 440.206
2604 1 -45.4493 3.31441 442.082 -45.4493 3.31441 442.082
2600 1 -47.1808 3.30479 443.957 -47.1808 3.30479 443.957
2887 1 -48.9122 3.29518 445.833 -48.9122 3.29518 445.833
2884 1 -50.6435 3.28561 447.709 -50.6435 3.28561 447.709
3168 1 -52.3748 3.2761 449.585 -52.3748 3.2761 449.585
2900 1 -40.9267 3.29358 446.394 -40.9267 3.29358 446.394
2897 1 -42.658 3.28396 448.27 -42.658 3.28396 448.27
2582 1 -58.1819 1.84396 440.521 -58.1819 1.84396 440.521
2579 1 -59.9133 1.83427 442.397 -59.9133 1.83427 442.397
2866 1 -61.6447 1.82458 444.273 -61.6447 1.82458 444.273
2578 1 -60.5554 1.10794 440.022 -60.5554 1.10794 440.022
2595 1 -50.196 1.84282 441.082 -50.196 1.84282 441.082
2592 1 -51.9275 1.8332 442.958 -51.9275 1.8332 442.958
2880 1 -53.6589 1.8236 444.834 -53.6589 1.8236 444.834
2877 1 -55.3902 1.81405 446.71 -55.3902 1.81405 446.71
2873 1 -57.1215 1.80454 448.586 -57.1215 1.80454 448.586
2609 1 -42.2102 1.84124 441.644 -42.2102 1.84124 441.644
2606 1 -43.9418 1.83164 443.519 -43.9418 1.83164 443.519
2892 1 -45.6732 1.82202 445.395 -45.6732 1.82202 445.395
2890 1 -47.4045 1.81242 447.271 -47.4045 1.81242 447.271
3174 1 -49.1358 1.80285 449.146 -49.1358 1.80285 449.146
2618 1 -37.4636 3.31275 442.643 -37.4636 3.31275 442.643
2585 1 -55.8085 2.57995 441.021 -55.8085 2.57995 441.021
2583 1 -57.5399 2.57029 442.897 -57.5399 2.57029 442.897
2870 1 -59.2713 2.56064 444.772 -59.2713 2.56064 444.772
2867 1 -61.0026 2.551 446.648 -61.0026 2.551 446.648
2863 1 -62.7338 2.54134 448.524 -62.7338 2.54134 448.524
2599 1 -47.8227 2.57863 441.582 -47.8227 2.57863 441.582
2596 1 -49.5541 2.56901 443.458 -49.5541 2.56901 443.458
2883 1 -51.2856 2.55941 445.333 -51.2856 2.55941 445.333
2881 1 -53.0169 2.54986 447.209 -53.0169 2.54986 447.209
3164 1 -54.7482 2.54037 449.085 -54.7482 2.54037 449.085
2610 1 -41.5685 2.56741 444.019 -41.5685 2.56741 444.019
2896 1 -43.2999 2.5578 445.895 -43.2999 2.5578 445.895
2893 1 -45.0312 2.54818 447.77 -45.0312 2.54818 447.77
3178 1 -46.7625 2.5386 449.646 -46.7625 2.5386 449.646
2575 1 -62.2868 1.09823 441.897 -62.2868 1.09823 441.897
2591 1 -52.5694 1.10697 440.583 -52.5694 1.10697 440.583
2588 1 -54.3009 1.09733 442.458 -54.3009 1.09733 442.458
2876 1 -56.0322 1.08771 444.334 -56.0322 1.08771 444.334
2872 1 -57.7636 1.07812 446.21 -57.7636 1.07812 446.21
2869 1 -59.4949 1.06855 448.086 -59.4949 1.06855 448.086
2605 1 -44.5835 1.10548 441.144 -44.5835 1.10548 441.144
2602 1 -46.3151 1.09587 443.019 -46.3151 1.09587 443.019
2889 1 -48.0465 1.08626 444.895 -48.0465 1.08626 444.895
2886 1 -49.7779 1.07667 446.771 -49.7779 1.07667 446.771
3170 1 -51.5092 1.06712 448.647 -51.5092 1.06712 448.647
2899 1 -41.7924 1.07504 447.332 -41.7924 1.07504 447.332
3184 1 -43.5236 1.06543 449.208 -43.5236 1.06543 449.208
2580 1 -59.0476 4.05284 441.459 -59.0476 4.05284 441.459
2577 1 -60.779 4.04315 443.335 -60.779 4.04315 443.335
2864 1 -62.5104 4.03346 445.211 -62.5104 4.03346 445.211
2862 1 -63.376 1.81489 446.148 -63.376 1.81489 446.148
2594 1 -51.0618 4.05173 442.02 -51.0618 4.05173 442.02
2590 1 -52.7932 4.04212 443.896 -52.7932 4.04212 443.896
2878 1 -54.5246 4.03254 445.772 -54.5246 4.03254 445.772
2875 1 -56.2559 4.02301 447.648 -56.2559 4.02301 447.648
3159 1 -57.9872 4.01352 449.523 -57.9872 4.01352 449.523
2611 1 -41.3444 4.05975 440.706 -41.3444 4.05975 440.706
2608 1 -43.076 4.05017 442.581 -43.076 4.05017 442.581
2894 1 -44.8075 4.04056 444.457 -44.8075 4.04056 444.457
2891 1 -46.5389 4.03094 446.333 -46.5389 4.03094 446.333
2888 1 -48.2702 4.02136 448.208 -48.2702 4.02136 448.208
2904 1 -38.5535 4.02937 446.894 -38.5535 4.02937 446.894
2621 1 -35.7318 3.32226 440.768 -35.7318 3.32226 440.768
2617 1 -38.1051 2.58653 440.268 -38.1051 2.58653 440.268
2614 1 -39.8369 2.57699 442.143 -39.8369 2.57699 442.143
2908 1 -36.1804 0.337726 447.394 -36.1804 0.337726 447.394
2619 1 -36.5977 1.10379 441.706 -36.5977 1.10379 441.706
2906 1 -37.0461 2.54664 448.332 -37.0461 2.54664 448.332
2905 1 -37.6878 1.82045 445.956 -37.6878 1.82045 445.956
2620 1 -35.9562 1.83003 444.081 -35.9562 1.83003 444.081
3190 1 -40.2848 4.01975 448.77 -40.2848 4.01975 448.77
2902 1 -39.4192 1.81083 447.832 -39.4192 1.81083 447.832
2903 1 -39.1953 3.30318 444.519 -39.1953 3.30318 444.519
2615 1 -38.9711 0.368042 441.206 -38.9711 0.368042 441.206
2909 1 -35.3147 2.55626 446.456 -35.3147 2.55626 446.456
14 1 -54.6259 4.28485 399.955 -54.6259 4.28485 399.955
7 1 -59.3035 2.78352 399.046 -59.3035 2.78352 399.046
25 1 -46.6313 4.2765 400.429 -46.6313 4.2765 400.429
38 1 -38.6325 4.23252 400.944 -38.6325 4.23252 400.944
23 1 -48.3655 4.25074 402.297 -48.3655 4.25074 402.297
287 1 -51.8282 4.22406 406.018 -51.8282 4.22406 406.018
878 1 -42.7844 4.18753 414.644 -42.7844 4.18753 414.644
579 1 -49.0417 4.20012 412.206 -49.0417 4.20012 412.206
585 1 -45.5734 4.21817 408.459 -45.5734 4.21817 408.459
290 1 -50.0987 4.23435 404.145 -50.0987 4.23435 404.145
11 1 -56.3451 4.23318 401.736 -56.3451 4.23318 401.736
595 1 -39.3172 4.20527 410.895 -39.3172 4.20527 410.895
1134 1 -62.2262 4.1723 417.267 -62.2262 4.1723 417.267
283 1 -53.564 4.21812 407.891 -53.564 4.21812 407.891
582 1 -47.3073 4.20885 410.333 -47.3073 4.20885 410.333
276 1 -58.0901 4.24346 403.591 -58.0901 4.24346 403.591
569 1 -55.2999 4.21217 409.763 -55.2999 4.21217 409.763
847 1 -60.4946 4.18226 415.39 -60.4946 4.18226 415.39
556 1 -63.285 4.21237 409.2 -63.285 4.21237 409.2
272 1 -59.8303 4.24022 405.443 -59.8303 4.24022 405.443
3 1 -61.1261 2.79559 400.729 -61.1261 2.79559 400.729
35 1 -40.3687 4.24633 402.824 -40.3687 4.24633 402.824
598 1 -37.5838 4.21442 409.021 -37.5838 4.21442 409.021
850 1 -58.7632 4.19251 413.514 -58.7632 4.19251 413.514