ITEM: TIMESTEP
0
ITEM: NUMBER OF ATOMS
4630
ITEM: BOX BOUNDS xy xz yz pp pp pp
-6.3807616799964421e+01 1.0682664864816442e+02 0.0000000000000000e+00
0.0000000000000000e+00 4.4274527100805940e+00 0.0000000000000000e+00
3.8000000000000000e+02 5.0000000000000000e+02 0.0000000000000000e+00
ITEM: ATOMS id type x y z xu yu zu
27 1 -45.959 2.02765 399.662 -45.959 2.02765 399.662
36 1 -40.3257 1.28673 399.721 -40.3257 1.28673 399.721
31 1 -43.5623 2.72455 400.101 -43.5623 2.72455 400.101
22 1 -49.1734 3.47706 400.067 -49.1734 3.47706 400.067
20 1 -50.0598 1.25463 400.91 -50.0598 1.25463 400.91
40 1 -37.931 1.98485 400.162 -37.931 1.98485 400.162
34 1 -41.1893 3.48498 400.552 -41.1893 3.48498 400.552
17 1 -52.4368 0.504707 400.465 -52.4368 0.504707 400.465
9 1 -58.0376 1.19718 400.374 -58.0376 1.19718 400.374
43 1 -35.5587 2.74606 400.614 -35.5587 2.74606 400.614
12 1 -55.6906 2.00488 400.854 -55.6906 2.00488 400.854
5 1 -60.4263 0.517174 399.912 -60.4263 0.517174 399.912
29 1 -44.428 0.495847 400.953 -44.428 0.495847 400.953
853 1 -57.4762 2.68019 414.992 -57.4762 2.68019 414.992
873 1 -46.2147 1.20486 415.123 -46.2147 1.20486 415.123
865 1 -50.3349 0.462801 416.493 -50.3349 0.462801 416.493
1174 1 -37.5601 1.93159 418.057 -37.5601 1.93159 418.057
883 1 -40.5829 0.465843 415.187 -40.5829 0.465843 415.187
863 1 -51.8469 1.94359 415.057 -51.8469 1.94359 415.057
315 1 -35.7854 1.24187 403.896 -35.7854 1.24187 403.896
307 1 -40.771 2.71067 406.206 -40.771 2.71067 406.206
1150 1 -52.0727 0.455925 418.363 -52.0727 0.455925 418.363
855 1 -55.9647 1.19971 416.428 -55.9647 1.19971 416.428
310 1 -39.0325 2.71874 404.34 -39.0325 2.71874 404.34
871 1 -47.0843 3.4156 416.058 -47.0843 3.4156 416.058
16 1 -53.3022 2.70304 401.318 -53.3022 2.70304 401.318
309 1 -39.2588 1.22986 407.639 -39.2588 1.22986 407.639
1156 1 -48.8229 3.40935 417.928 -48.8229 3.40935 417.928
867 1 -49.4656 2.67972 415.558 -49.4656 2.67972 415.558
1159 1 -46.4418 4.14531 418.428 -46.4418 4.14531 418.428
1168 1 -40.8103 3.40632 418.492 -40.8103 3.40632 418.492
1170 1 -39.9409 1.19564 417.557 -39.9409 1.19564 417.557
594 1 -40.1281 3.44032 408.576 -40.1281 3.44032 408.576
37 1 -39.6743 1.98922 401.995 -39.6743 1.98922 401.995
851 1 -58.3445 0.462654 415.928 -58.3445 0.462654 415.928
857 1 -55.0962 3.41718 415.492 -55.0962 3.41718 415.492
592 1 -40.9972 1.22342 409.511 -40.9972 1.22342 409.511
849 1 -59.2129 2.67263 416.864 -59.2129 2.67263 416.864
877 1 -43.8334 1.94066 415.623 -43.8334 1.94066 415.623
1143 1 -56.8331 3.4097 417.364 -56.8331 3.4097 417.364
1140 1 -58.57 3.40227 419.236 -58.57 3.40227 419.236
845 1 -61.5927 1.93558 416.365 -61.5927 1.93558 416.365
875 1 -44.703 4.15139 416.558 -44.703 4.15139 416.558
886 1 -38.8441 0.472073 413.316 -38.8441 0.472073 413.316
891 1 -35.5942 3.42502 412.88 -35.5942 3.42502 412.88
39 1 -38.1678 0.501366 403.391 -38.1678 0.501366 403.391
1177 1 -36.0487 0.45075 419.491 -36.0487 0.45075 419.491
1167 1 -41.6797 1.18956 419.428 -41.6797 1.18956 419.428
8 1 -58.9146 3.45167 401.329 -58.9146 3.45167 401.329
869 1 -47.9537 1.19881 416.993 -47.9537 1.19881 416.993
1136 1 -60.9499 2.66528 418.736 -60.9499 2.66528 418.736
1162 1 -44.93 2.66435 419.863 -44.93 2.66435 419.863
15 1 -54.1749 0.506607 402.301 -54.1749 0.506607 402.301
280 1 -55.9176 0.497248 404.147 -55.9176 0.497248 404.147
277 1 -57.6683 0.502435 406.007 -57.6683 0.502435 406.007
273 1 -59.4075 0.49503 407.873 -59.4075 0.49503 407.873
560 1 -61.142 0.484798 409.747 -61.142 0.484798 409.747
557 1 -62.8781 0.476347 411.621 -62.8781 0.476347 411.621
26 1 -46.1688 0.511218 402.831 -46.1688 0.511218 402.831
294 1 -47.9115 0.506195 404.71 -47.9115 0.506195 404.71
291 1 -49.651 0.494919 406.578 -49.651 0.494919 406.578
576 1 -51.3904 0.487561 408.447 -51.3904 0.487561 408.447
573 1 -53.1315 0.483068 410.315 -53.1315 0.483068 410.315
570 1 -54.8707 0.477493 412.184 -54.8707 0.477493 412.184
854 1 -56.6078 0.470267 414.056 -56.6078 0.470267 414.056
305 1 -41.639 0.494074 407.141 -41.639 0.494074 407.141
589 1 -43.3781 0.487612 409.013 -43.3781 0.487612 409.013
586 1 -45.1172 0.481132 410.883 -45.1172 0.481132 410.883
872 1 -46.8566 0.47496 412.753 -46.8566 0.47496 412.753
599 1 -37.1055 0.478485 411.445 -37.1055 0.478485 411.445
1132 1 -63.3298 1.9284 418.237 -63.3298 1.9284 418.237
4 1 -60.7029 3.47778 403.119 -60.7029 3.47778 403.119
268 1 -62.4293 3.45426 404.993 -62.4293 3.45426 404.993
1152 1 -51.2039 2.67315 417.428 -51.2039 2.67315 417.428
19 1 -50.9397 3.44694 401.834 -50.9397 3.44694 401.834
286 1 -52.6689 3.44409 403.694 -52.6689 3.44409 403.694
282 1 -54.408 3.44458 405.573 -54.408 3.44458 405.573
279 1 -56.1545 3.44497 407.441 -56.1545 3.44497 407.441
565 1 -57.8946 3.44011 409.31 -57.8946 3.44011 409.31
563 1 -59.6307 3.43166 411.183 -59.6307 3.43166 411.183
846 1 -61.367 3.42349 413.056 -61.367 3.42349 413.056
32 1 -42.9206 3.45846 402.419 -42.9206 3.45846 402.419
300 1 -44.662 3.45725 404.28 -44.662 3.45725 404.28
297 1 -46.402 3.45022 406.145 -46.402 3.45022 406.145
293 1 -48.1402 3.44288 408.014 -48.1402 3.44288 408.014
578 1 -49.8795 3.43595 409.884 -49.8795 3.43595 409.884
575 1 -51.6198 3.43036 411.752 -51.6198 3.43036 411.752
860 1 -53.3588 3.4243 413.621 -53.3588 3.4243 413.621
591 1 -41.8668 3.43388 410.447 -41.8668 3.43388 410.447
588 1 -43.6058 3.42762 412.317 -43.6058 3.42762 412.317
874 1 -45.345 3.42155 414.188 -45.345 3.42155 414.188
10 1 -57.4219 1.9652 402.721 -57.4219 1.9652 402.721
274 1 -59.1853 1.98756 404.564 -59.1853 1.98756 404.564
271 1 -60.9196 1.97615 406.434 -60.9196 1.97615 406.434
558 1 -62.6527 1.96457 408.311 -62.6527 1.96457 408.311
24 1 -47.699 1.98358 401.425 -47.699 1.98358 401.425
21 1 -49.4292 1.98358 403.271 -49.4292 1.98358 403.271
288 1 -51.16 1.97351 405.145 -51.16 1.97351 405.145
285 1 -52.9 1.96663 407.014 -52.9 1.96663 407.014
571 1 -54.6432 1.96362 408.879 -54.6432 1.96362 408.879
568 1 -56.3827 1.95854 410.748 -56.3827 1.95854 410.748
852 1 -58.1194 1.95092 412.62 -58.1194 1.95092 412.62
848 1 -59.8558 1.94308 414.492 -59.8558 1.94308 414.492
306 1 -41.415 1.9803 403.835 -41.415 1.9803 403.835
302 1 -43.1512 1.9743 405.705 -43.1512 1.9743 405.705
299 1 -44.8896 1.96872 407.577 -44.8896 1.96872 407.577
583 1 -46.6286 1.96211 409.448 -46.6286 1.96211 409.448
581 1 -48.3682 1.95562 411.318 -48.3682 1.95562 411.318
866 1 -50.108 1.94979 413.187 -50.108 1.94979 413.187
880 1 -42.0943 1.94673 413.752 -42.0943 1.94673 413.752
312 1 -37.5214 1.23601 405.766 -37.5214 1.23601 405.766
2 1 -62.2276 0.533487 401.684 -62.2276 0.533487 401.684
13 1 -55.0392 2.71295 403.199 -55.0392 2.71295 403.199
278 1 -56.7911 2.71322 405.073 -56.7911 2.71322 405.073
275 1 -58.5388 2.71341 406.936 -58.5388 2.71341 406.936
562 1 -60.2743 2.70344 408.81 -60.2743 2.70344 408.81
559 1 -62.0098 2.6941 410.684 -62.0098 2.6941 410.684
1166 1 -42.5491 3.40022 420.363 -42.5491 3.40022 420.363
889 1 -36.4634 1.20811 413.815 -36.4634 1.20811 413.815
28 1 -45.3031 2.72796 401.936 -45.3031 2.72796 401.936
296 1 -47.046 2.72094 403.775 -47.046 2.72094 403.775
292 1 -48.7824 2.71424 405.643 -48.7824 2.71424 405.643
289 1 -50.52 2.70504 407.514 -50.52 2.70504 407.514
574 1 -52.2609 2.69922 409.382 -52.2609 2.69922 409.382
572 1 -54.0015 2.69435 411.25 -54.0015 2.69435 411.25
856 1 -55.7394 2.68776 413.12 -55.7394 2.68776 413.12
303 1 -42.5091 2.70418 408.076 -42.5091 2.70418 408.076
587 1 -44.2477 2.698 409.947 -44.2477 2.698 409.947
584 1 -45.9868 2.69171 411.818 -45.9868 2.69171 411.818
870 1 -47.7264 2.68572 413.688 -47.7264 2.68572 413.688
6 1 -59.8179 1.25915 402.2 -59.8179 1.25915 402.2
270 1 -61.5661 1.25141 404.051 -61.5661 1.25141 404.051
267 1 -63.2942 1.23477 405.935 -63.2942 1.23477 405.935
890 1 -35.8214 1.93782 416.186 -35.8214 1.93782 416.186
18 1 -51.7947 1.23478 402.781 -51.7947 1.23478 402.781
284 1 -53.5358 1.23391 404.647 -53.5358 1.23391 404.647
281 1 -55.2821 1.23153 406.511 -55.2821 1.23153 406.511
567 1 -57.0258 1.22993 408.376 -57.0258 1.22993 408.376
564 1 -58.7629 1.22228 410.247 -58.7629 1.22228 410.247
561 1 -60.4988 1.21376 412.12 -60.4988 1.21376 412.12
844 1 -62.2354 1.20594 413.993 -62.2354 1.20594 413.993
33 1 -42.0714 1.24518 401.48 -42.0714 1.24518 401.48
30 1 -43.7971 1.23976 403.33 -43.7971 1.23976 403.33
298 1 -45.5322 1.23971 405.206 -45.5322 1.23971 405.206
295 1 -47.2707 1.23314 407.079 -47.2707 1.23314 407.079
580 1 -49.0097 1.2253 408.949 -49.0097 1.2253 408.949
577 1 -50.7498 1.21923 410.817 -50.7498 1.21923 410.817
862 1 -52.4896 1.21371 412.686 -52.4896 1.21371 412.686
590 1 -42.7362 1.21707 411.382 -42.7362 1.21707 411.382
876 1 -44.4753 1.21084 413.253 -44.4753 1.21084 413.253
1163 1 -44.0607 0.453707 418.928 -44.0607 0.453707 418.928
1153 1 -50.5609 3.4026 419.799 -50.5609 3.4026 419.799
311 1 -38.3892 3.44747 406.705 -38.3892 3.44747 406.705
42 1 -36.4414 0.506074 401.541 -36.4414 0.506074 401.541
1135 1 -61.8184 0.447964 419.673 -61.8184 0.447964 419.673
1171 1 -39.2988 1.92545 419.927 -39.2988 1.92545 419.927
1139 1 -59.4385 1.1849 420.172 -59.4385 1.1849 420.172
601 1 -36.2363 2.69542 410.509 -36.2363 2.69542 410.509
313 1 -36.649 3.45498 404.832 -36.649 3.45498 404.832
858 1 -54.2277 1.20709 414.556 -54.2277 1.20709 414.556
868 1 -48.5961 0.469055 414.623 -48.5961 0.469055 414.623
1147 1 -54.4531 4.14666 417.863 -54.4531 4.14666 417.863
843 1 -63.1039 3.41598 414.929 -63.1039 3.41598 414.929
593 1 -40.3554 1.95297 411.881 -40.3554 1.95297 411.881
308 1 -39.9013 0.500591 405.267 -39.9013 0.500591 405.267
861 1 -52.7158 4.15391 415.992 -52.7158 4.15391 415.992
1158 1 -47.3111 1.92841 419.363 -47.3111 1.92841 419.363
884 1 -39.7135 2.68267 414.251 -39.7135 2.68267 414.251
881 1 -41.4524 2.67652 416.122 -41.4524 2.67652 416.122
885 1 -39.0715 3.41243 416.622 -39.0715 3.41243 416.622
859 1 -53.5845 1.9366 416.928 -53.5845 1.9366 416.928
596 1 -38.6168 1.95932 410.01 -38.6168 1.95932 410.01
879 1 -42.3218 0.459759 417.057 -42.3218 0.459759 417.057
1172 1 -38.4294 4.14224 418.992 -38.4294 4.14224 418.992
1154 1 -49.692 1.19231 418.863 -49.692 1.19231 418.863
887 1 -38.2021 1.2018 415.686 -38.2021 1.2018 415.686
597 1 -37.9748 2.68896 412.38 -37.9748 2.68896 412.38
1161 1 -45.5725 1.93466 417.493 -45.5725 1.93466 417.493
1138 1 -60.0814 0.455201 417.8 -60.0814 0.455201 417.8
1149 1 -52.9414 2.66606 419.299 -52.9414 2.66606 419.299
41 1 -37.2911 2.71966 402.48 -37.2911 2.71966 402.48
888 1 -37.3328 3.41866 414.751 -37.3328 3.41866 414.751
1165 1 -43.1913 2.67047 417.993 -43.1913 2.67047 417.993
1141 1 -57.7015 1.19224 418.3 -57.7015 1.19224 418.3
1145 1 -55.3216 1.92924 418.799 -55.3216 1.92924 418.799
600 1 -36.8788 1.96577 408.138 -36.8788 1.96577 408.138
1148 1 -53.81 0.448695 420.235 -53.81 0.448695 420.235
882 1 -41.2249 4.16354 412.817 -41.2249 4.16354 412.817
1157 1 -48.1801 4.13886 420.299 -48.1801 4.13886 420.299
1144 1 -56.1901 4.13927 419.735 -56.1901 4.13927 419.735
602 1 -35.3671 0.485092 409.573 -35.3671 0.485092 409.573
1131 1 -63.5556 0.440903 421.545 -63.5556 0.440903 421.545
1755 1 -35.8605 2.63391 428.474 -35.8605 2.63391 428.474
1460 1 -40.395 2.64902 424.168 -40.395 2.64902 424.168
2308 1 -50.1777 3.33821 437.768 -50.1777 3.33821 437.768
2316 1 -45.1917 1.87126 435.46 -45.1917 1.87126 435.46
2312 1 -47.7976 4.07468 438.267 -47.7976 4.07468 438.267
1464 1 -38.0143 3.38499 424.668 -38.0143 3.38499 424.668
1461 1 -39.5258 0.438413 423.233 -39.5258 0.438413 423.233
2039 1 -38.6938 3.35062 434.587 -38.6938 3.35062 434.587
2613 1 -40.6573 1.85642 439.765 -40.6573 1.85642 439.765
1467 1 -35.6336 4.121 425.168 -35.6336 4.121 425.168
2603 1 -46.2861 2.59394 439.703 -46.2861 2.59394 439.703
1443 1 -49.9178 4.13203 422.17 -49.9178 4.13203 422.17
1748 1 -39.7526 3.37869 426.539 -39.7526 3.37869 426.539
2023 1 -47.5719 1.13485 434.961 -47.5719 1.13485 434.961
2310 1 -48.6662 1.85751 439.203 -48.6662 1.85751 439.203
1151 1 -51.4296 1.18536 420.734 -51.4296 1.18536 420.734
2303 1 -53.4264 0.384469 438.205 -53.4264 0.384469 438.205
2299 1 -55.8064 4.07531 437.706 -55.8064 4.07531 437.706
2033 1 -41.9428 0.397274 435.023 -41.9428 0.397274 435.023
1433 1 -55.5471 0.441395 422.107 -55.5471 0.441395 422.107
1430 1 -57.2842 0.434146 423.978 -57.2842 0.434146 423.978
1426 1 -59.0213 0.426976 425.85 -59.0213 0.426976 425.85
1713 1 -60.7584 0.419883 427.722 -60.7584 0.419883 427.722
1710 1 -62.4956 0.412855 429.595 -62.4956 0.412855 429.595
2330 1 -36.5397 2.59949 438.393 -36.5397 2.59949 438.393
1160 1 -45.7992 0.447457 420.798 -45.7992 0.447457 420.798
1447 1 -47.5373 0.440877 422.669 -47.5373 0.440877 422.669
1444 1 -49.2749 0.434018 424.541 -49.2749 0.434018 424.541
1730 1 -51.0122 0.427004 426.412 -51.0122 0.427004 426.412
1727 1 -52.7495 0.419932 428.284 -52.7495 0.419932 428.284
1724 1 -54.4867 0.412851 430.156 -54.4867 0.412851 430.156
2008 1 -56.2238 0.405785 432.028 -56.2238 0.405785 432.028
2006 1 -57.961 0.398741 433.9 -57.961 0.398741 433.9
1458 1 -41.2642 0.432126 425.104 -41.2642 0.432126 425.104
1743 1 -43.0022 0.425654 426.975 -43.0022 0.425654 426.975
1740 1 -44.7399 0.418996 428.846 -44.7399 0.418996 428.846
2026 1 -46.4774 0.412199 430.718 -46.4774 0.412199 430.718
2022 1 -48.2148 0.405313 432.59 -48.2148 0.405313 432.59
2019 1 -49.9521 0.398379 434.461 -49.9521 0.398379 434.461
2309 1 -49.3091 1.12794 436.832 -49.3091 1.12794 436.832
1137 1 -60.3071 3.39501 421.108 -60.3071 3.39501 421.108
1421 1 -62.0442 3.38789 422.98 -62.0442 3.38789 422.98
1439 1 -52.2983 3.39551 421.67 -52.2983 3.39551 421.67
1435 1 -54.0355 3.3883 423.542 -54.0355 3.3883 423.542
1432 1 -55.7726 3.3811 425.414 -55.7726 3.3811 425.414
1719 1 -57.5098 3.37394 427.286 -57.5098 3.37394 427.286
1716 1 -59.2469 3.36684 429.158 -59.2469 3.36684 429.158
2001 1 -60.984 3.35979 431.03 -60.984 3.35979 431.03
1998 1 -62.7212 3.35278 432.902 -62.7212 3.35278 432.902
2323 1 -40.4313 3.34394 436.458 -40.4313 3.34394 436.458
1453 1 -44.2875 3.39396 422.234 -44.2875 3.39396 422.234
1450 1 -46.0255 3.38743 424.105 -46.0255 3.38743 424.105
1446 1 -47.7632 3.38066 425.976 -47.7632 3.38066 425.976
1732 1 -49.5006 3.37373 427.848 -49.5006 3.37373 427.848
1729 1 -51.2379 3.36673 429.719 -51.2379 3.36673 429.719
2014 1 -52.9751 3.3597 431.591 -52.9751 3.3597 431.591
2011 1 -54.7123 3.35267 433.463 -54.7123 3.35267 433.463
1745 1 -41.4906 3.37223 428.41 -41.4906 3.37223 428.41
1742 1 -43.2283 3.36561 430.281 -43.2283 3.36561 430.281
2028 1 -44.9659 3.35886 432.153 -44.9659 3.35886 432.153
2025 1 -46.7033 3.35202 434.025 -46.7033 3.35202 434.025
1427 1 -58.7956 1.91459 422.543 -58.7956 1.91459 422.543
1424 1 -60.5328 1.90744 424.415 -60.5328 1.90744 424.415
1711 1 -62.2699 1.90037 426.287 -62.2699 1.90037 426.287
2322 1 -41.3 1.12684 437.394 -41.3 1.12684 437.394
1750 1 -38.241 1.89783 427.974 -38.241 1.89783 427.974
1155 1 -49.049 1.92176 421.234 -49.049 1.92176 421.234
1441 1 -50.7866 1.91479 423.106 -50.7866 1.91479 423.106
1438 1 -52.5239 1.90768 424.977 -52.5239 1.90768 424.977
1725 1 -54.2611 1.90054 426.849 -54.2611 1.90054 426.849
1722 1 -55.9982 1.89342 428.721 -55.9982 1.89342 428.721
1718 1 -57.7354 1.88633 430.593 -57.7354 1.88633 430.593
2003 1 -59.4725 1.87927 432.465 -59.4725 1.87927 432.465
2000 1 -61.2096 1.87225 434.337 -61.2096 1.87225 434.337
1459 1 -41.0374 1.91931 421.798 -41.0374 1.91931 421.798
1455 1 -42.7758 1.91303 423.669 -42.7758 1.91303 423.669
1452 1 -44.5138 1.90654 425.54 -44.5138 1.90654 425.54
1737 1 -46.2515 1.89983 427.411 -46.2515 1.89983 427.411
1735 1 -47.989 1.89298 429.283 -47.989 1.89298 429.283
2020 1 -49.7264 1.88604 431.154 -49.7264 1.88604 431.154
2017 1 -51.4636 1.87906 433.026 -51.4636 1.87906 433.026
2034 1 -41.7168 1.88478 431.717 -41.7168 1.88478 431.717
2031 1 -43.4543 1.87807 433.588 -43.4543 1.87807 433.588
2029 1 -44.3231 4.0884 434.524 -44.3231 4.0884 434.524
1146 1 -54.6785 2.65877 421.171 -54.6785 2.65877 421.171
1431 1 -56.4156 2.65149 423.043 -56.4156 2.65149 423.043
1428 1 -58.1527 2.64428 424.914 -58.1527 2.64428 424.914
1715 1 -59.8899 2.63715 426.786 -59.8899 2.63715 426.786
1712 1 -61.627 2.63009 428.658 -61.627 2.63009 428.658
1708 1 -63.3642 2.62309 430.531 -63.3642 2.62309 430.531
1747 1 -39.979 1.89138 429.845 -39.979 1.89138 429.845
1449 1 -46.6683 2.65794 421.734 -46.6683 2.65794 421.734
1445 1 -48.4061 2.6512 423.605 -48.4061 2.6512 423.605
1442 1 -50.1436 2.64425 425.477 -50.1436 2.64425 425.477
1728 1 -51.8809 2.6372 427.348 -51.8809 2.6372 427.348
1726 1 -53.6181 2.63012 429.22 -53.6181 2.63012 429.22
2010 1 -55.3553 2.62304 431.092 -55.3553 2.62304 431.092
2007 1 -57.0924 2.61599 432.964 -57.0924 2.61599 432.964
1456 1 -42.1332 2.64264 426.039 -42.1332 2.64264 426.039
1741 1 -43.8711 2.63607 427.911 -43.8711 2.63607 427.911
1738 1 -45.6087 2.62934 429.782 -45.6087 2.62934 429.782
2024 1 -47.3461 2.62249 431.654 -47.3461 2.62249 431.654
2021 1 -49.0834 2.61558 433.525 -49.0834 2.61558 433.525
2035 1 -41.0741 2.61436 434.088 -41.0741 2.61436 434.088
1754 1 -36.5028 1.90415 426.103 -36.5028 1.90415 426.103
1423 1 -61.1756 1.17771 422.044 -61.1756 1.17771 422.044
1420 1 -62.9128 1.17064 423.916 -62.9128 1.17064 423.916
2044 1 -35.4446 1.87642 434.151 -35.4446 1.87642 434.151
1437 1 -53.1669 1.17818 422.606 -53.1669 1.17818 422.606
1434 1 -54.9041 1.17097 424.478 -54.9041 1.17097 424.478
1721 1 -56.6412 1.16379 426.35 -56.6412 1.16379 426.35
1717 1 -58.3783 1.15666 428.222 -58.3783 1.15666 428.222
1714 1 -60.1155 1.14958 430.094 -60.1155 1.14958 430.094
1999 1 -61.8526 1.14255 431.966 -61.8526 1.14255 431.966
1997 1 -63.5897 1.13556 433.838 -63.5897 1.13556 433.838
1164 1 -43.4183 1.1834 421.298 -43.4183 1.1834 421.298
1451 1 -45.1566 1.17701 423.169 -45.1566 1.17701 423.169
1448 1 -46.8944 1.17035 425.04 -46.8944 1.17035 425.04
1734 1 -48.6319 1.16348 426.912 -48.6319 1.16348 426.912
1731 1 -50.3693 1.15651 428.783 -50.3693 1.15651 428.783
2016 1 -52.1065 1.14949 430.655 -52.1065 1.14949 430.655
2012 1 -53.8437 1.14245 432.527 -53.8437 1.14245 432.527
2009 1 -55.5809 1.13543 434.399 -55.5809 1.13543 434.399
1746 1 -40.6216 1.16176 427.475 -40.6216 1.16176 427.475
1744 1 -42.3595 1.15522 429.346 -42.3595 1.15522 429.346
2030 1 -44.0971 1.14853 431.217 -44.0971 1.14853 431.217
2027 1 -45.8346 1.14172 433.089 -45.8346 1.14172 433.089
2325 1 -39.5626 1.13357 435.523 -39.5626 1.13357 435.523
1749 1 -39.1101 4.10835 428.91 -39.1101 4.10835 428.91
1425 1 -59.6642 4.12473 423.479 -59.6642 4.12473 423.479
1736 1 -47.1203 4.11014 428.347 -47.1203 4.11014 428.347
1142 1 -57.0586 1.92186 420.671 -57.0586 1.92186 420.671
1720 1 -56.8668 4.10359 429.657 -56.8668 4.10359 429.657
2005 1 -58.6039 4.09652 431.529 -58.6039 4.09652 431.529
2002 1 -60.3411 4.08948 433.401 -60.3411 4.08948 433.401
1169 1 -40.1681 4.13611 420.863 -40.1681 4.13611 420.863
1723 1 -55.1297 4.1107 427.785 -55.1297 4.1107 427.785
1440 1 -51.6552 4.12497 424.041 -51.6552 4.12497 424.041
1733 1 -48.8577 4.10324 430.219 -48.8577 4.10324 430.219
2018 1 -50.595 4.09627 432.09 -50.595 4.09627 432.09
2015 1 -52.3322 4.08929 433.962 -52.3322 4.08929 433.962
2036 1 -40.8479 4.10183 430.781 -40.8479 4.10183 430.781
2032 1 -42.5856 4.09517 432.652 -42.5856 4.09517 432.652
2326 1 -38.9199 1.86317 437.894 -38.9199 1.86317 437.894
1752 1 -37.372 4.11473 427.039 -37.372 4.11473 427.039
1457 1 -41.9067 4.12992 422.733 -41.9067 4.12992 422.733
2043 1 -36.0871 1.14671 431.78 -36.0871 1.14671 431.78
2286 1 -62.9467 1.86525 436.209 -62.9467 1.86525 436.209
2319 1 -43.0374 1.12004 439.266 -43.0374 1.12004 439.266
1436 1 -53.3925 4.11784 425.913 -53.3925 4.11784 425.913
1422 1 -61.4013 4.11762 425.351 -61.4013 4.11762 425.351
1173 1 -37.7873 0.444586 421.362 -37.7873 0.444586 421.362
2293 1 -59.055 1.12142 438.143 -59.055 1.12142 438.143
2289 1 -61.4351 0.384719 437.644 -61.4351 0.384719 437.644
2295 1 -57.5435 4.06834 439.578 -57.5435 4.06834 439.578
1465 1 -37.1451 1.17438 423.733 -37.1451 1.17438 423.733
2315 1 -45.4175 0.383652 438.767 -45.4175 0.383652 438.767
2331 1 -36.3134 4.08687 435.086 -36.3134 4.08687 435.086
2297 1 -56.6749 1.85809 438.642 -56.6749 1.85809 438.642
2324 1 -39.7886 4.07353 438.829 -39.7886 4.07353 438.829
2306 1 -51.0463 1.12102 438.704 -51.0463 1.12102 438.704
2285 1 -63.1721 0.377731 439.516 -63.1721 0.377731 439.516
1462 1 -38.8835 1.16813 425.604 -38.8835 1.16813 425.604
1751 1 -37.5985 2.62752 430.345 -37.5985 2.62752 430.345
2329 1 -37.1823 1.86985 436.022 -37.1823 1.86985 436.022
2042 1 -36.956 3.3572 432.716 -36.956 3.3572 432.716
2041 1 -37.8249 1.1402 433.651 -37.8249 1.1402 433.651
2593 1 -51.9148 3.33128 439.64 -51.9148 3.33128 439.64
2328 1 -37.4084 0.382421 439.329 -37.4084 0.382421 439.329
2301 1 -54.2949 2.59472 439.141 -54.2949 2.59472 439.141
1466 1 -36.2759 3.3912 422.797 -36.2759 3.3912 422.797
2298 1 -56.4494 3.34565 435.335 -56.4494 3.34565 435.335
2321 1 -42.1687 3.33718 438.33 -42.1687 3.33718 438.33
2313 1 -46.929 1.8644 437.332 -46.929 1.8644 437.332
2294 1 -58.1865 3.33864 437.207 -58.1865 3.33864 437.207
2304 1 -52.5578 2.60167 437.269 -52.5578 2.60167 437.269
2300 1 -54.9379 1.86507 436.77 -54.9379 1.86507 436.77
2290 1 -60.5666 2.60194 436.708 -60.5666 2.60194 436.708
2318 1 -43.6802 0.390493 436.895 -43.6802 0.390493 436.895
2327 1 -38.0511 4.08025 436.958 -38.0511 4.08025 436.958
2004 1 -58.8295 2.60895 434.836 -58.8295 2.60895 434.836
2013 1 -53.2008 1.87206 434.898 -53.2008 1.87206 434.898
2288 1 -62.0781 4.08247 435.273 -62.0781 4.08247 435.273
2037 1 -40.2052 0.403968 433.152 -40.2052 0.403968 433.152
1739 1 -45.3827 4.11694 426.475 -45.3827 4.11694 426.475
1753 1 -36.7295 0.417 429.409 -36.7295 0.417 429.409
2307 1 -50.8207 2.60863 435.397 -50.8207 2.60863 435.397
2314 1 -46.0604 4.08156 436.396 -46.0604 4.08156 436.396
2040 1 -38.4675 0.410549 431.28 -38.4675 0.410549 431.28
2320 1 -42.8115 2.60762 435.959 -42.8115 2.60762 435.959
2292 1 -59.698 0.39172 435.772 -59.698 0.39172 435.772
2311 1 -48.4405 3.34513 435.896 -48.4405 3.34513 435.896
2302 1 -54.0693 4.08229 435.834 -54.0693 4.08229 435.834
2296 1 -57.318 1.12841 436.271 -57.318 1.12841 436.271
1463 1 -38.6566 2.65523 422.298 -38.6566 2.65523 422.298
2287 1 -62.3036 2.59495 438.58 -62.3036 2.59495 438.58
2291 1 -59.9235 3.33165 439.079 -59.9235 3.33165 439.079
2317 1 -44.5489 2.6008 437.831 -44.5489 2.6008 437.831
2038 1 -39.3364 2.621 432.216 -39.3364 2.621 432.216
2305 1 -51.6892 0.391426 436.333 -51.6892 0.391426 436.333
2332 1 -35.6709 0.389094 437.457 -35.6709 0.389094 437.457
1709 1 -63.1385 4.1106 427.223 -63.1385 4.1106 427.223
1468 1 -35.4066 1.18056 421.862 -35.4066 1.18056 421.862
1454 1 -43.6449 4.12354 424.604 -43.6449 4.12354 424.604
1429 1 -57.9271 4.13194 421.607 -57.9271 4.13194 421.607
1133 1 -62.687 2.65814 420.609 -62.687 2.65814 420.609
1175 1 -36.918 2.66139 420.427 -36.918 2.66139 420.427
2616 1 -38.503 1.10526 443.571 -38.503 1.10526 443.571
2901 1 -40.2401 1.09841 445.443 -40.2401 1.09841 445.443
2907 1 -36.9916 4.052 445.006 -36.9916 4.052 445.006
3194 1 -38.0857 0.347274 449.249 -38.0857 0.347274 449.249
2587 1 -55.1634 0.377523 440.077 -55.1634 0.377523 440.077
2597 1 -49.5348 4.06778 440.139 -49.5348 4.06778 440.139
2584 1 -56.9004 0.370591 441.949 -56.9004 0.370591 441.949
2581 1 -58.6374 0.363672 443.821 -58.6374 0.363672 443.821
2868 1 -60.3743 0.356751 445.693 -60.3743 0.356751 445.693
2865 1 -62.1112 0.349812 447.565 -62.1112 0.349812 447.565
2601 1 -47.1547 0.376776 440.638 -47.1547 0.376776 440.638
2598 1 -48.8918 0.369888 442.51 -48.8918 0.369888 442.51
2885 1 -50.6288 0.363011 444.382 -50.6288 0.363011 444.382
2882 1 -52.3658 0.356166 446.254 -52.3658 0.356166 446.254
2879 1 -54.1028 0.349364 448.126 -54.1028 0.349364 448.126
2612 1 -40.883 0.368849 443.072 -40.883 0.368849 443.072
2898 1 -42.6202 0.361986 444.944 -42.6202 0.361986 444.944
2895 1 -44.3572 0.355102 446.816 -44.3572 0.355102 446.816
3180 1 -46.0941 0.348225 448.688 -46.0941 0.348225 448.688
2576 1 -61.6605 3.32467 440.951 -61.6605 3.32467 440.951
2574 1 -63.3975 3.31768 442.823 -63.3975 3.31768 442.823
2589 1 -53.6519 3.32437 441.512 -53.6519 3.32437 441.512
2586 1 -55.3889 3.31747 443.384 -55.3889 3.31747 443.384
2874 1 -57.1259 3.3106 445.256 -57.1259 3.3106 445.256
2871 1 -58.8628 3.30374 447.128 -58.8628 3.30374 447.128
3155 1 -60.5996 3.29687 449 -60.5996 3.29687 449
2607 1 -43.906 3.33035 440.202 -43.906 3.33035 440.202
2604 1 -45.6432 3.32348 442.074 -45.6432 3.32348 442.074
2600 1 -47.3803 3.3166 443.945 -47.3803 3.3166 443.945
2887 1 -49.1173 3.30973 445.817 -49.1173 3.30973 445.817
2884 1 -50.8543 3.30288 447.689 -50.8543 3.30288 447.689
3168 1 -52.5913 3.29609 449.561 -52.5913 3.29609 449.561
2900 1 -41.1087 3.3087 446.379 -41.1087 3.3087 446.379
2897 1 -42.8456 3.30182 448.251 -42.8456 3.30182 448.251
2582 1 -58.412 1.85113 440.514 -58.412 1.85113 440.514
2579 1 -60.1489 1.84417 442.386 -60.1489 1.84417 442.386
2866 1 -61.8859 1.83721 444.258 -61.8859 1.83721 444.258
2578 1 -60.792 1.11443 440.015 -60.792 1.11443 440.015
2595 1 -50.4033 1.8506 441.075 -50.4033 1.8506 441.075
2592 1 -52.1404 1.84371 442.947 -52.1404 1.84371 442.947
2880 1 -53.8774 1.83685 444.819 -53.8774 1.83685 444.819
2877 1 -55.6144 1.83002 446.691 -55.6144 1.83002 446.691
2873 1 -57.3513 1.82322 448.563 -57.3513 1.82322 448.563
2609 1 -42.3945 1.8496 441.637 -42.3945 1.8496 441.637
2606 1 -44.1317 1.84273 443.509 -44.1317 1.84273 443.509
2892 1 -45.8687 1.83585 445.381 -45.8687 1.83585 445.381
2890 1 -47.6057 1.82897 447.252 -47.6057 1.82897 447.252
3174 1 -49.3427 1.82213 449.124 -49.3427 1.82213 449.124
2618 1 -37.6344 3.32239 442.635 -37.6344 3.32239 442.635
2585 1 -56.0319 2.58778 441.013 -56.0319 2.58778 441.013
2583 1 -57.7689 2.58086 442.885 -57.7689 2.58086 442.885
2870 1 -59.5059 2.57394 444.757 -59.5059 2.57394 444.757
2867 1 -61.2427 2.56701 446.629 -61.2427 2.56701 446.629
2863 1 -62.9796 2.56005 448.501 -62.9796 2.56005 448.501
2599 1 -48.0232 2.58706 441.574 -48.0232 2.58706 441.574
2596 1 -49.7603 2.58017 443.446 -49.7603 2.58017 443.446
2883 1 -51.4973 2.57331 445.318 -51.4973 2.57331 445.318
2881 1 -53.2343 2.56649 447.19 -53.2343 2.56649 447.19
3164 1 -54.9713 2.55971 449.062 -54.9713 2.55971 449.062
2610 1 -41.7516 2.57915 444.008 -41.7516 2.57915 444.008
2896 1 -43.4887 2.57227 445.88 -43.4887 2.57227 445.88
2893 1 -45.2256 2.56539 447.752 -45.2256 2.56539 447.752
3178 1 -46.9626 2.55853 449.623 -46.9626 2.55853 449.623
2575 1 -62.529 1.10745 441.887 -62.529 1.10745 441.887
2591 1 -52.7834 1.1141 440.576 -52.7834 1.1141 440.576
2588 1 -54.5204 1.10719 442.448 -54.5204 1.10719 442.448
2876 1 -56.2574 1.10031 444.32 -56.2574 1.10031 444.32
2872 1 -57.9943 1.09344 446.192 -57.9943 1.09344 446.192
2869 1 -59.7312 1.08658 448.064 -59.7312 1.08658 448.064
2605 1 -44.7746 1.11319 441.138 -44.7746 1.11319 441.138
2602 1 -46.5117 1.10632 443.01 -46.5117 1.10632 443.01
2889 1 -48.2488 1.09943 444.881 -48.2488 1.09943 444.881
2886 1 -49.9858 1.09257 446.753 -49.9858 1.09257 446.753
3170 1 -51.7228 1.08575 448.625 -51.7228 1.08575 448.625
2899 1 -41.9772 1.09154 447.315 -41.9772 1.09154 447.315
3184 1 -43.7141 1.08465 449.187 -43.7141 1.08465 449.187
2580 1 -59.2804 4.06138 441.45 -59.2804 4.06138 441.45
2577 1 -61.0174 4.05442 443.322 -61.0174 4.05442 443.322
2864 1 -62.7543 4.04744 445.194 -62.7543 4.04744 445.194
2862 1 -63.6227 1.83022 446.13 -63.6227 1.83022 446.13
2594 1 -51.2718 4.06088 442.011 -51.2718 4.06088 442.011
2590 1 -53.0089 4.054 443.883 -53.0089 4.054 443.883
2878 1 -54.7459 4.04716 445.755 -54.7459 4.04716 445.755
2875 1 -56.4828 4.04034 447.627 -56.4828 4.04034 447.627
3159 1 -58.2197 4.03356 449.499 -58.2197 4.03356 449.499
2611 1 -41.5259 4.06674 440.701 -41.5259 4.06674 440.701
2608 1 -43.2631 4.05989 442.573 -43.2631 4.05989 442.573
2894 1 -45.0002 4.05302 444.445 -45.0002 4.05302 444.445
2891 1 -46.7372 4.04613 446.316 -46.7372 4.04613 446.316
2888 1 -48.4742 4.03927 448.188 -48.4742 4.03927 448.188
2904 1 -38.7287 4.04515 446.878 -38.7287 4.04515 446.878
2621 1 -35.897 3.32915 440.764 -35.897 3.32915 440.764
2617 1 -38.2771 2.59278 440.264 -38.2771 2.59278 440.264
2614 1 -40.0144 2.58599 442.136 -40.0144 2.58599 442.136
2908 1 -36.3487 0.354161 447.377 -36.3487 0.354161 447.377
2619 1 -36.7657 1.11205 441.7 -36.7657 1.11205 441.7
2906 1 -37.2172 2.56445 448.313 -37.2172 2.56445 448.313
2905 1 -37.8601 1.83485 445.942 -37.8601 1.83485 445.942
2620 1 -36.123 1.84168 444.071 -36.123 1.84168 444.071
3190 1 -40.4656 4.03826 448.75 -40.4656 4.03826 448.75
2902 1 -39.5972 1.82798 447.814 -39.5972 1.82798 447.814
2903 1 -39.3716 3.31557 444.507 -39.3716 3.31557 444.507
2615 1 -39.1458 0.375667 441.2 -39.1458 0.375667 441.2
2909 1 -35.4802 2.57131 446.442 -35.4802 2.57131 446.442
14 1 -54.83 4.2349 400.023 -54.83 4.2349 400.023
7 1 -59.5256 2.73111 399.114 -59.5256 2.73111 399.114
25 1 -46.8164 4.22571 400.497 -46.8164 4.22571 400.497
38 1 -38.7983 4.18331 401.013 -38.7983 4.18331 401.013
23 1 -48.5563 4.20291 402.363 -48.5563 4.20291 402.363
287 1 -52.0302 4.1815 406.075 -52.0302 4.1815 406.075
878 1 -42.9638 4.15739 414.687 -42.9638 4.15739 414.687
579 1 -49.2381 4.16645 412.253 -49.2381 4.16645 412.253
585 1 -45.7591 4.17923 408.513 -45.7591 4.17923 408.513
290 1 -50.2953 4.18899 404.205 -50.2953 4.18899 404.205
11 1 -56.558 4.1845 401.799 -56.558 4.1845 401.799
595 1 -39.4861 4.16986 410.946 -39.4861 4.16986 410.946
1134 1 -62.4612 4.14568 417.301 -62.4612 4.14568 417.301
283 1 -53.7717 4.17835 407.945 -53.7717 4.17835 407.945
582 1 -47.4983 4.17252 410.384 -47.4983 4.17252 410.384
276 1 -58.3084 4.1976 403.651 -58.3084 4.1976 403.651
569 1 -55.5134 4.17515 409.812 -55.5134 4.17515 409.812
847 1 -60.7242 4.15301 415.428 -60.7242 4.15301 415.428
556 1 -63.5207 4.17407 409.248 -63.5207 4.17407 409.248
272 1 -60.0555 4.19715 405.499 -60.0555 4.19715 405.499
3 1 -61.3487 2.74455 400.795 -61.3487 2.74455 400.795
35 1 -40.5389 4.2 402.889 -40.5389 4.2 402.889
598 1 -37.7475 4.17645 409.075 -37.7475 4.17645 409.075
850 1 -58.9875 4.16068 413.556 -58.9875 4.16068 413.556