ITEM: TIMESTEP
0
ITEM: NUMBER OF ATOMS
4630
ITEM: BOX BOUNDS xy xz yz pp pp pp
-6.4242914730267614e+01 1.0726194657846762e+02 0.0000000000000000e+00
0.0000000000000000e+00 4.4274527100805940e+00 0.0000000000000000e+00
3.8000000000000000e+02 5.0000000000000000e+02 0.0000000000000000e+00
ITEM: ATOMS id type x y z xu yu zu
7 1 -59.9306 2.6323 399.236 -59.9306 2.6323 399.236
27 1 -46.2891 1.93201 399.79 -46.2891 1.93201 399.79
36 1 -40.6297 1.19169 399.85 -40.6297 1.19169 399.85
45 1 -34.9726 0.453288 399.912 -34.9726 0.453288 399.912
85 1 -9.083 0.460296 399.736 -9.083 0.460296 399.736
94 1 -3.42299 4.14771 399.795 -3.42299 4.14771 399.795
103 1 2.23413 3.40921 399.856 2.23413 3.40921 399.856
112 1 7.89115 2.67091 399.918 7.89115 2.67091 399.918
152 1 33.7836 2.67054 399.733 33.7836 2.67054 399.733
161 1 39.4455 1.92832 399.789 39.4455 1.92832 399.789
170 1 45.1049 1.18788 399.848 45.1049 1.18788 399.848
227 1 82.324 4.13874 399.785 82.324 4.13874 399.785
236 1 87.9853 3.39794 399.843 87.9853 3.39794 399.843
245 1 93.6428 2.65844 399.904 93.6428 2.65844 399.904
5 1 -60.8285 0.419746 400.034 -60.8285 0.419746 400.034
2 1 -62.6457 0.438374 401.795 -62.6457 0.438374 401.795
3 1 -61.7549 2.64834 400.914 -61.7549 2.64834 400.914
1 1 -63.5079 2.62988 402.727 107.997 2.62988 402.727
4 1 -61.1137 3.39011 403.229 -61.1137 3.39011 403.229
9 1 -58.4341 1.10651 400.496 -58.4341 1.10651 400.496
8 1 -59.313 3.3601 401.448 -59.313 3.3601 401.448
10 1 -57.8143 1.87619 402.834 -57.8143 1.87619 402.834
6 1 -60.2223 1.16872 402.315 -60.2223 1.16872 402.315
11 1 -56.9462 4.09277 401.912 -56.9462 4.09277 401.912
12 1 -56.0739 1.91057 400.974 -56.0739 1.91057 400.974
16 1 -53.6749 2.61056 401.438 -53.6749 2.61056 401.438
15 1 -54.5515 0.41772 402.419 -54.5515 0.41772 402.419
14 1 -55.2026 4.14074 400.148 -55.2026 4.14074 400.148
17 1 -52.8044 0.412148 400.589 -52.8044 0.412148 400.589
13 1 -55.421 2.62627 403.311 -55.421 2.62627 403.311
22 1 -49.5195 3.38426 400.193 -49.5195 3.38426 400.193
20 1 -50.4156 1.16128 401.031 -50.4156 1.16128 401.031
19 1 -51.3002 3.35525 401.949 -51.3002 3.35525 401.949
18 1 -52.1592 1.1463 402.897 -52.1592 1.1463 402.897
21 1 -49.7825 1.89609 403.384 -49.7825 1.89609 403.384
23 1 -48.9043 4.11286 402.481 -48.9043 4.11286 402.481
26 1 -46.5061 0.423145 402.948 -46.5061 0.423145 402.948
24 1 -48.0427 1.88954 401.544 -48.0427 1.88954 401.544
28 1 -45.6355 2.63766 402.058 -45.6355 2.63766 402.058
25 1 -47.1544 4.13007 400.621 -47.1544 4.13007 400.621
29 1 -44.7569 0.402558 401.077 -44.7569 0.402558 401.077
31 1 -43.8872 2.63109 400.229 -43.8872 2.63109 400.229
34 1 -41.5025 3.38991 400.676 -41.5025 3.38991 400.676
32 1 -43.2416 3.36862 402.538 -43.2416 3.36862 402.538
33 1 -42.3888 1.15223 401.599 -42.3888 1.15223 401.599
30 1 -44.1226 1.15231 403.446 -44.1226 1.15231 403.446
35 1 -40.8496 4.11257 403.006 -40.8496 4.11257 403.006
40 1 -38.2296 1.89184 400.29 -38.2296 1.89184 400.29
37 1 -39.9804 1.89974 402.117 -39.9804 1.89974 402.117
41 1 -37.5855 2.63047 402.599 -37.5855 2.63047 402.599
38 1 -39.1012 4.09046 401.137 -39.1012 4.09046 401.137
39 1 -38.4666 0.414592 403.506 -38.4666 0.414592 403.506
43 1 -35.8453 2.65146 400.738 -35.8453 2.65146 400.738
42 1 -36.7323 0.413623 401.661 -36.7323 0.413623 401.661
44 1 -35.1929 3.37459 403.068 -35.1929 3.37459 403.068
46 1 -34.3235 1.16164 402.179 -34.3235 1.16164 402.179
47 1 -33.4441 3.35238 401.2 -33.4441 3.35238 401.2
49 1 -32.5725 1.15377 400.352 -32.5725 1.15377 400.352
52 1 -30.1883 1.91358 400.801 -30.1883 1.91358 400.801
50 1 -31.9285 1.89258 402.662 -31.9285 1.89258 402.662
51 1 -31.0752 4.10319 401.723 -31.0752 4.10319 401.723
53 1 -29.5358 2.6368 403.131 -29.5358 2.6368 403.131
54 1 -29.3156 4.14286 399.974 -29.3156 4.14286 399.974
48 1 -32.8097 4.10422 403.569 -32.8097 4.10422 403.569
58 1 -26.9155 0.415935 400.415 -26.9155 0.415935 400.415
59 1 -26.2713 1.1548 402.724 -26.2713 1.1548 402.724
56 1 -27.787 2.61456 401.262 -27.787 2.61456 401.262
55 1 -28.6664 0.423831 402.242 -28.6664 0.423831 402.242
60 1 -25.4181 3.36539 401.785 -25.4181 3.36539 401.785
57 1 -27.1525 3.36647 403.631 -27.1525 3.36647 403.631
61 1 -24.5312 1.17576 400.863 -24.5312 1.17576 400.863
63 1 -23.6585 3.40505 400.037 -23.6585 3.40505 400.037
62 1 -23.8786 1.89899 403.193 -23.8786 1.89899 403.193
64 1 -23.0091 4.11345 402.304 -23.0091 4.11345 402.304
65 1 -22.13 1.87664 401.324 -22.13 1.87664 401.324
66 1 -21.4951 2.62856 403.693 -21.4951 2.62856 403.693
70 1 -18.8739 0.43748 400.925 -18.8739 0.43748 400.925
68 1 -20.6138 0.416828 402.786 -20.6138 0.416828 402.786
69 1 -19.7609 2.62719 401.847 -19.7609 2.62719 401.847
67 1 -21.2584 4.10547 400.477 -21.2584 4.10547 400.477
72 1 -18.0023 2.66649 400.097 -18.0023 2.66649 400.097
71 1 -18.2204 1.16094 403.254 -18.2204 1.16094 403.254
75 1 -15.6027 3.36749 400.536 -15.6027 3.36749 400.536
74 1 -16.472 1.13881 401.384 -16.472 1.13881 401.384
73 1 -17.3519 3.37517 402.365 -17.3519 3.37517 402.365
76 1 -14.9553 4.1031 402.843 -14.9553 4.1031 402.843
77 1 -14.0957 1.88405 401.895 -14.0957 1.88405 401.895
348 1 -15.8344 1.88863 403.75 -15.8344 1.88863 403.75
80 1 -12.3141 1.91268 400.139 -12.3141 1.91268 400.139
81 1 -11.6986 2.64176 402.427 -11.6986 2.64176 402.427
78 1 -13.2116 4.1171 400.977 -13.2116 4.1171 400.977
79 1 -12.577 0.425317 403.329 -12.577 0.425317 403.329
83 1 -9.94843 2.65836 400.567 -9.94843 2.65836 400.567
82 1 -10.8372 0.417931 401.489 -10.8372 0.417931 401.489
87 1 -7.55053 3.35852 401.023 -7.55053 3.35852 401.023
84 1 -9.2997 3.37952 402.893 -9.2997 3.37952 402.893
86 1 -8.42916 1.16634 402.004 -8.42916 1.16634 402.004
89 1 -6.68091 1.15959 400.174 -6.68091 1.15959 400.174
90 1 -6.03481 1.89735 402.484 -6.03481 1.89735 402.484
88 1 -6.9157 4.10865 403.391 -6.9157 4.10865 403.391
92 1 -4.29583 1.91848 400.622 -4.29583 1.91848 400.622
93 1 -3.64252 2.64131 402.951 -3.64252 2.64131 402.951
91 1 -5.1821 4.1083 401.544 -5.1821 4.1083 401.544
96 1 -1.89436 2.61905 401.082 -1.89436 2.61905 401.082
95 1 -2.7734 0.428407 402.062 -2.7734 0.428407 402.062
98 1 -1.02279 0.420407 400.235 -1.02279 0.420407 400.235
100 1 0.474719 3.36962 401.605 0.474719 3.36962 401.605
99 1 -0.378325 1.15908 402.544 -0.378325 1.15908 402.544
97 1 -1.25933 3.37073 403.451 -1.25933 3.37073 403.451
101 1 1.36152 1.17995 400.683 1.36152 1.17995 400.683
102 1 2.01432 1.9031 403.013 2.01432 1.9031 403.013
105 1 3.76279 1.88076 401.144 3.76279 1.88076 401.144
104 1 2.88357 4.11753 402.124 2.88357 4.11753 402.124
108 1 5.27869 0.420836 402.606 5.27869 0.420836 402.606
107 1 4.63427 4.10956 400.296 4.63427 4.10956 400.296
106 1 4.39763 2.63256 403.513 4.39763 2.63256 403.513
110 1 7.01856 0.441669 400.745 7.01856 0.441669 400.745
111 1 7.6714 1.16482 403.074 7.6714 1.16482 403.074
109 1 6.13179 2.63136 401.667 6.13179 2.63136 401.667
113 1 8.54066 3.37921 402.185 8.54066 3.37921 402.185
114 1 9.41983 1.14239 401.205 9.41983 1.14239 401.205
116 1 10.2913 3.37117 400.358 10.2913 3.37117 400.358
118 1 11.7889 1.89285 401.728 11.7889 1.89285 401.728
117 1 10.9358 4.10985 402.667 10.9358 4.10985 402.667
121 1 13.5482 1.9323 399.979 13.5482 1.9323 399.979
120 1 13.3287 0.426228 403.135 13.3287 0.426228 403.135
119 1 12.6757 4.13054 400.806 12.6757 4.13054 400.806
115 1 10.0548 1.89418 403.574 10.0548 1.89418 403.574
122 1 14.1979 2.64055 402.247 14.1979 2.64055 402.247
123 1 15.077 0.403657 401.266 15.077 0.403657 401.266
125 1 15.9484 2.63239 400.419 15.9484 2.63239 400.419
126 1 16.5932 3.37098 402.728 16.5932 3.37098 402.728
127 1 17.4463 1.15387 401.789 17.4463 1.15387 401.789
124 1 15.7122 1.1554 403.635 15.7122 1.1554 403.635
130 1 19.2055 1.19318 400.04 19.2055 1.19318 400.04
128 1 18.3329 3.39145 400.867 18.3329 3.39145 400.867
129 1 18.9863 4.11458 403.196 18.9863 4.11458 403.196
131 1 19.8555 1.90135 402.307 19.8555 1.90135 402.307
132 1 20.7344 4.09173 401.327 20.7344 4.09173 401.327
133 1 21.3701 0.41597 403.695 21.3701 0.41597 403.695
134 1 21.6059 1.89299 400.479 21.6059 1.89299 400.479
136 1 23.1039 0.413979 401.849 23.1039 0.413979 401.849
135 1 22.2513 2.63142 402.788 22.2513 2.63142 402.788
139 1 24.8623 0.452808 400.098 24.8623 0.452808 400.098
137 1 23.9909 2.65139 400.926 23.9909 2.65139 400.926
138 1 24.6451 3.37476 403.255 24.6451 3.37476 403.255
141 1 26.3931 3.35199 401.384 26.3931 3.35199 401.384
140 1 25.5135 1.16125 402.365 25.5135 1.16125 402.365
142 1 27.2624 1.15305 400.536 27.2624 1.15305 400.536
143 1 27.9107 1.88825 402.842 27.9107 1.88825 402.842
144 1 28.7701 4.0962 401.894 28.7701 4.0962 401.894
145 1 29.6542 1.9014 400.976 29.6542 1.9014 400.976
147 1 30.5516 4.12426 400.138 30.5516 4.12426 400.138
146 1 30.2898 2.637 403.327 30.2898 2.637 403.327
150 1 32.918 0.441296 400.564 32.918 0.441296 400.564
148 1 31.168 0.425574 402.425 31.168 0.425574 402.425
149 1 32.0293 2.62874 401.487 32.0293 2.62874 401.487
153 1 34.4382 3.37644 402 34.4382 3.37644 402
151 1 33.5677 1.16251 402.89 33.5677 1.16251 402.89
156 1 36.1862 3.3691 400.17 36.1862 3.3691 400.17
154 1 35.3166 1.14074 401.019 35.3166 1.14074 401.019
157 1 36.8335 4.1065 402.479 36.8335 4.1065 402.479
155 1 35.9527 1.89071 403.386 35.9527 1.89071 403.386
158 1 37.6861 1.8895 401.539 37.6861 1.8895 401.539
159 1 38.5724 4.12668 400.616 38.5724 4.12668 400.616
162 1 40.0958 2.63642 402.056 40.0958 2.63642 402.056
160 1 39.2267 0.422229 402.945 39.2267 0.422229 402.945
163 1 40.9747 0.399151 401.076 40.9747 0.399151 401.076
165 1 41.8463 2.62782 400.228 41.8463 2.62782 400.228
164 1 41.611 1.15079 403.444 41.611 1.15079 403.444
168 1 44.2319 3.38619 400.675 44.2319 3.38619 400.675
167 1 43.3449 1.14882 401.597 43.3449 1.14882 401.597
166 1 42.492 3.36624 402.537 42.492 3.36624 402.537
169 1 44.8856 4.10964 403.004 44.8856 4.10964 403.004
171 1 45.755 1.89629 402.115 45.755 1.89629 402.115
174 1 47.5057 1.88777 400.287 47.5057 1.88777 400.287
175 1 48.1513 2.6264 402.596 48.1513 2.6264 402.596
172 1 46.6341 4.08653 401.135 46.6341 4.08653 401.135
173 1 47.2701 0.410979 403.503 47.2701 0.410979 403.503
177 1 49.8913 2.64644 400.735 49.8913 2.64644 400.735
176 1 49.0043 0.409032 401.657 49.0043 0.409032 401.657
179 1 50.7645 0.448159 399.908 50.7645 0.448159 399.908
181 1 52.2936 3.34695 401.194 52.2936 3.34695 401.194
178 1 50.545 3.37003 403.063 50.545 3.37003 403.063
180 1 51.4144 1.1567 402.175 51.4144 1.1567 402.175
183 1 53.1653 1.14821 400.347 53.1653 1.14821 400.347
184 1 53.8107 1.88698 402.656 53.8107 1.88698 402.656
186 1 55.5508 1.90708 400.794 55.5508 1.90708 400.794
187 1 56.2044 2.63076 403.123 56.2044 2.63076 403.123
188 1 56.4241 4.13628 399.968 56.4241 4.13628 399.968
185 1 54.6638 4.09709 401.716 54.6638 4.09709 401.716
182 1 52.9295 4.099 403.562 52.9295 4.099 403.562
189 1 57.0739 0.417456 402.235 57.0739 0.417456 402.235
192 1 58.8248 0.409005 400.407 58.8248 0.409005 400.407
194 1 60.3234 3.358 401.777 60.3234 3.358 401.777
193 1 59.4702 1.14787 402.716 59.4702 1.14787 402.716
190 1 57.9531 2.60773 401.255 57.9531 2.60773 401.255
191 1 58.5889 3.35987 403.622 58.5889 3.35987 403.622
195 1 61.2104 1.16803 400.855 61.2104 1.16803 400.855
197 1 62.0836 3.39723 400.028 62.0836 3.39723 400.028
199 1 63.6127 1.86876 401.315 63.6127 1.86876 401.315
196 1 61.8639 1.89176 403.183 61.8639 1.89176 403.183
198 1 62.7334 4.10592 402.295 62.7334 4.10592 402.295
200 1 64.2484 2.62097 403.683 64.2484 2.62097 403.683
202 1 65.1297 0.408963 402.776 65.1297 0.408963 402.776
201 1 64.4844 4.09749 400.468 64.4844 4.09749 400.468
206 1 67.7431 2.65836 400.088 67.7431 2.65836 400.088
204 1 66.8698 0.429136 400.915 66.8698 0.429136 400.915
203 1 65.9829 2.61911 401.837 65.9829 2.61911 401.837
205 1 67.5234 1.15288 403.244 67.5234 1.15288 403.244
207 1 68.393 3.36703 402.355 68.393 3.36703 402.355
209 1 70.1439 3.35854 400.528 70.1439 3.35854 400.528
208 1 69.2721 1.1298 401.375 69.2721 1.1298 401.375
211 1 71.6423 1.87994 401.897 71.6423 1.87994 401.897
210 1 70.7894 4.09745 402.836 70.7894 4.09745 402.836
212 1 72.5295 4.11736 400.975 72.5295 4.11736 400.975
214 1 73.4016 1.91885 400.147 73.4016 1.91885 400.147
217 1 75.8018 2.61965 400.586 75.8018 2.61965 400.586
216 1 74.9323 0.39106 401.434 74.9323 0.39106 401.434
215 1 74.0524 2.62782 402.414 74.0524 2.62782 402.414
213 1 73.1838 0.413871 403.303 73.1838 0.413871 403.303
218 1 76.4499 3.35539 402.891 76.4499 3.35539 402.891
220 1 78.1939 3.36875 401.025 78.1939 3.36875 401.025
219 1 77.3096 1.13596 401.943 77.3096 1.13596 401.943
222 1 79.0919 1.16428 400.188 79.0919 1.16428 400.188
223 1 79.7076 1.89344 402.475 79.7076 1.89344 402.475
221 1 78.8291 4.10477 403.377 78.8291 4.10477 403.377
224 1 80.5692 4.09667 401.537 80.5692 4.09667 401.537
225 1 81.4582 1.9094 400.615 81.4582 1.9094 400.615
229 1 83.8567 2.60941 401.071 83.8567 2.60941 401.071
228 1 82.978 0.417539 402.052 82.978 0.417539 402.052
226 1 82.1073 2.63098 402.941 82.1073 2.63098 402.941
231 1 84.7265 0.410386 400.222 84.7265 0.410386 400.222
234 1 87.1121 1.16878 400.669 87.1121 1.16878 400.669
233 1 86.2257 3.35886 401.592 86.2257 3.35886 401.592
235 1 87.7658 1.89194 402.999 87.7658 1.89194 402.999
232 1 85.373 1.14823 402.531 85.373 1.14823 402.531
230 1 84.492 3.35982 403.439 84.492 3.35982 403.439
241 1 91.0303 0.409058 402.592 91.0303 0.409058 402.592
238 1 89.514 1.86908 401.13 89.514 1.86908 401.13
240 1 90.3857 4.09778 400.283 90.3857 4.09778 400.283
237 1 88.6349 4.10621 402.11 88.6349 4.10621 402.11
239 1 90.1494 2.62106 403.499 90.1494 2.62106 403.499
242 1 91.8833 2.61925 401.653 91.8833 2.61925 401.653
243 1 92.7701 0.429296 400.731 92.7701 0.429296 400.731
247 1 95.1711 1.12942 401.192 95.1711 1.12942 401.192
246 1 94.2921 3.36665 402.172 94.2921 3.36665 402.172
244 1 93.4231 1.15266 403.06 93.4231 1.15266 403.06
254 1 99.2969 1.91665 399.967 99.2969 1.91665 399.967
249 1 96.0427 3.35797 400.345 96.0427 3.35797 400.345
253 1 99.0796 0.412878 403.124 99.0796 0.412878 403.124
251 1 97.5392 1.87902 401.716 97.5392 1.87902 401.716
252 1 98.426 4.11579 400.794 98.426 4.11579 400.794
250 1 96.6869 4.0968 402.655 96.6869 4.0968 402.655
248 1 95.8063 1.88184 403.561 95.8063 1.88184 403.561
258 1 101.695 2.6124 400.408 101.695 2.6124 400.408
255 1 99.9472 2.62551 402.235 99.9472 2.62551 402.235
259 1 102.338 3.36097 402.724 102.338 3.36097 402.724
260 1 103.185 1.14445 401.797 103.185 1.14445 401.797
256 1 100.827 0.38661 401.255 100.827 0.38661 401.255
257 1 101.461 1.14647 403.629 101.461 1.14647 403.629
263 1 104.902 1.16957 400.052 104.902 1.16957 400.052
261 1 104.058 3.38088 400.869 104.058 3.38088 400.869
264 1 105.626 1.89355 402.267 105.626 1.89355 402.267
265 1 106.476 4.08941 401.316 106.476 4.08941 401.316
262 1 104.746 4.10866 403.176 104.746 4.10866 403.176
266 1 107.135 0.408291 403.672 107.135 0.408291 403.672
268 1 -62.851 3.3708 405.093 -62.851 3.3708 405.093
271 1 -61.3343 1.89716 406.532 -61.3343 1.89716 406.532
270 1 -61.9832 1.16604 404.155 -61.9832 1.16604 404.155
267 1 -63.7204 1.15379 406.033 -63.7204 1.15379 406.033
272 1 -60.465 4.11597 405.6 -60.465 4.11597 405.6
269 1 -62.2054 4.10652 407.467 -62.2054 4.10652 407.467
277 1 -58.0651 0.422609 406.109 -58.0651 0.422609 406.109
274 1 -59.5891 1.90377 404.67 -59.5891 1.90377 404.67
278 1 -57.1824 2.63075 405.178 -57.1824 2.63075 405.178
275 1 -58.9411 2.63614 407.034 -58.9411 2.63614 407.034
276 1 -58.7057 4.11119 403.761 -58.7057 4.11119 403.761
279 1 -56.5444 3.36891 407.539 -56.5444 3.36891 407.539
280 1 -56.3041 0.412347 404.255 -56.3041 0.412347 404.255
286 1 -53.0385 3.35795 403.805 -53.0385 3.35795 403.805
282 1 -54.7876 3.3637 405.678 -54.7876 3.3637 405.678
284 1 -53.9104 1.15082 404.756 -53.9104 1.15082 404.756
281 1 -55.6669 1.15294 406.612 -55.6669 1.15294 406.612
285 1 -53.2728 1.88919 407.115 -53.2728 1.88919 407.115
291 1 -50.0074 0.416031 406.681 -50.0074 0.416031 406.681
288 1 -51.5228 1.89091 405.252 -51.5228 1.89091 405.252
292 1 -49.1341 2.63308 405.749 -49.1341 2.63308 405.749
287 1 -52.3981 4.10134 406.179 -52.3981 4.10134 406.179
290 1 -50.6536 4.10358 404.315 -50.6536 4.10358 404.315
294 1 -48.2583 0.422795 404.82 -48.2583 0.422795 404.82
297 1 -46.7422 3.37049 406.25 -46.7422 3.37049 406.25
296 1 -47.3883 2.63483 403.888 -47.3883 2.63483 403.888
298 1 -45.8674 1.15767 405.315 -45.8674 1.15767 405.315
295 1 -47.6154 1.15589 407.181 -47.6154 1.15589 407.181
300 1 -44.9924 3.37281 404.393 -44.9924 3.37281 404.393
306 1 -41.7299 1.89463 403.949 -41.7299 1.89463 403.949
302 1 -43.4749 1.89341 405.813 -43.4749 1.89341 405.813
304 1 -42.5974 4.11005 404.883 -42.5974 4.11005 404.883
301 1 -44.3478 4.10788 406.749 -44.3478 4.10788 406.749
305 1 -41.9558 0.417118 407.245 -41.9558 0.417118 407.245
307 1 -41.0833 2.63126 406.313 -41.0833 2.63126 406.313
310 1 -39.3358 2.63493 404.454 -39.3358 2.63493 404.454
312 1 -37.8178 1.15572 405.874 -37.8178 1.15572 405.874
311 1 -38.69 3.36968 406.811 -38.69 3.36968 406.811
308 1 -40.2091 0.418973 405.377 -40.2091 0.418973 405.377
313 1 -36.9409 3.37248 404.944 -36.9409 3.37248 404.944
315 1 -36.0734 1.15688 404.011 -36.0734 1.15688 404.011
316 1 -35.4264 1.89376 406.375 -35.4264 1.89376 406.375
317 1 -34.5523 4.10885 405.439 -34.5523 4.10885 405.439
314 1 -36.2985 4.10694 407.307 -36.2985 4.10694 407.307
319 1 -33.679 1.89722 404.516 -33.679 1.89722 404.516
320 1 -33.0329 2.63218 406.873 -33.0329 2.63218 406.873
324 1 -30.4163 0.419138 404.073 -30.4163 0.419138 404.073
321 1 -32.1608 0.418138 405.936 -32.1608 0.418138 405.936
322 1 -31.2838 2.63481 405.007 -31.2838 2.63481 405.007
323 1 -30.6413 3.3694 407.37 -30.6413 3.3694 407.37
325 1 -29.7692 1.15616 406.437 -29.7692 1.15616 406.437
328 1 -28.0218 1.15951 404.578 -28.0218 1.15951 404.578
326 1 -28.8951 3.37119 405.501 -28.8951 3.37119 405.501
329 1 -27.3757 1.89456 406.935 -27.3757 1.89456 406.935
330 1 -26.5035 4.10793 405.999 -26.5035 4.10793 405.999
331 1 -25.6266 1.8971 405.069 -25.6266 1.8971 405.069
337 1 -22.3643 0.421697 404.641 -22.3643 0.421697 404.641
334 1 -24.1118 0.418441 406.5 -24.1118 0.418441 406.5
335 1 -23.2377 2.63342 405.563 -23.2377 2.63342 405.563
333 1 -24.759 4.10884 404.135 -24.759 4.10884 404.135
338 1 -21.7181 1.15669 406.997 -21.7181 1.15669 406.997
332 1 -24.9839 2.63172 407.432 -24.9839 2.63172 407.432
340 1 -19.9688 1.15912 405.131 -19.9688 1.15912 405.131
342 1 -19.1015 3.37074 404.197 -19.1015 3.37074 404.197
339 1 -20.846 3.36998 406.061 -20.846 3.36998 406.061
344 1 -17.5793 1.89458 405.623 -17.5793 1.89458 405.623
343 1 -18.4543 4.10733 406.561 -18.4543 4.10733 406.561
341 1 -19.3263 1.89342 407.493 -19.3263 1.89342 407.493
347 1 -16.0631 0.418614 407.061 -16.0631 0.418614 407.061
349 1 -15.1907 2.63192 406.124 -15.1907 2.63192 406.124
346 1 -16.7064 4.1098 404.7 -16.7064 4.1098 404.7
350 1 -14.3169 0.421208 405.197 -14.3169 0.421208 405.197
351 1 -13.6722 1.15845 407.56 -13.6722 1.15845 407.56
353 1 -12.7998 3.37345 406.626 -12.7998 3.37345 406.626
352 1 -13.4479 2.63334 404.26 -13.4479 2.63334 404.26
354 1 -11.9271 1.16283 405.694 -11.9271 1.16283 405.694
356 1 -11.0516 3.37973 404.765 -11.0516 3.37973 404.765
358 1 -10.1818 1.16398 403.833 -10.1818 1.16398 403.833
357 1 -10.4075 4.11296 407.127 -10.4075 4.11296 407.127
363 1 -7.14002 2.63716 406.694 -7.14002 2.63716 406.694
359 1 -9.53471 1.89996 406.195 -9.53471 1.89996 406.195
362 1 -7.78533 1.9019 404.339 -7.78533 1.9019 404.339
360 1 -8.6602 4.11442 405.26 -8.6602 4.11442 405.26
364 1 -6.26737 0.422555 405.758 -6.26737 0.422555 405.758
368 1 -4.52269 0.423481 403.894 -4.52269 0.423481 403.894
366 1 -5.39001 2.63904 404.828 -5.39001 2.63904 404.828
369 1 -3.87555 1.16027 406.258 -3.87555 1.16027 406.258
367 1 -4.74775 3.37369 407.19 -4.74775 3.37369 407.19
370 1 -3.0015 3.37532 405.322 -3.0015 3.37532 405.322
372 1 -2.1284 1.16373 404.399 -2.1284 1.16373 404.399
376 1 0.266657 1.90116 404.889 0.266657 1.90116 404.889
373 1 -1.48207 1.89856 406.756 -1.48207 1.89856 406.756
374 1 -0.610101 4.11196 405.819 -0.610101 4.11196 405.819
379 1 1.7814 0.422384 406.32 1.7814 0.422384 406.32
378 1 1.13396 4.11292 403.955 1.13396 4.11292 403.955
377 1 0.909533 2.63566 407.252 0.909533 2.63566 407.252
383 1 4.17493 1.16061 406.817 4.17493 1.16061 406.817
380 1 2.65532 2.63738 405.383 2.65532 2.63738 405.383
382 1 3.52848 0.425651 404.46 3.52848 0.425651 404.46
384 1 5.04688 3.37392 405.88 5.04688 3.37392 405.88
385 1 5.92368 1.16303 404.951 5.92368 1.16303 404.951
387 1 6.79103 3.37471 404.017 6.79103 3.37471 404.017
388 1 7.43854 4.11169 406.381 7.43854 4.11169 406.381
386 1 6.56666 1.8976 407.313 6.56666 1.8976 407.313
389 1 8.31247 1.89915 405.445 8.31247 1.89915 405.445
391 1 9.18565 4.1148 404.522 9.18565 4.1148 404.522
392 1 9.8322 0.422338 406.879 9.8322 0.422338 406.879
393 1 10.7042 2.63556 405.942 10.7042 2.63556 405.942
394 1 11.581 0.424593 405.012 11.581 0.424593 405.012
396 1 12.4483 2.6362 404.078 12.4483 2.6362 404.078
397 1 13.096 3.37317 406.442 13.096 3.37317 406.442
395 1 12.2241 1.15917 407.375 12.2241 1.15917 407.375
398 1 13.9699 1.16055 405.506 13.9699 1.16055 405.506
400 1 14.8431 3.37611 404.583 14.8431 3.37611 404.583
401 1 15.4898 4.11107 406.94 15.4898 4.11107 406.94
402 1 16.3618 1.89675 406.003 16.3618 1.89675 406.003
403 1 17.2386 4.11315 405.073 17.2386 4.11315 405.073
405 1 18.106 1.89721 404.139 18.106 1.89721 404.139
406 1 18.7539 2.63412 406.503 18.7539 2.63412 406.503
409 1 20.5011 2.63686 404.643 20.5011 2.63686 404.643
410 1 21.148 3.37168 406.999 21.148 3.37168 406.999
407 1 19.6278 0.421386 405.566 19.6278 0.421386 405.566
404 1 17.8819 0.420202 407.435 17.8819 0.420202 407.435
412 1 22.8971 3.37354 405.132 22.8971 3.37354 405.132
411 1 22.02 1.15722 406.062 22.02 1.15722 406.062
415 1 24.4122 1.89379 406.562 24.4122 1.89379 406.562
414 1 23.7642 1.1574 404.198 23.7642 1.1574 404.198
416 1 25.2871 4.10819 405.624 25.2871 4.10819 405.624
413 1 23.5403 4.10764 407.494 23.5403 4.10764 407.494
418 1 26.1599 1.89565 404.7 26.1599 1.89565 404.7
419 1 26.804 2.63167 407.061 26.804 2.63167 407.061
420 1 27.0317 4.10156 403.749 27.0317 4.10156 403.749
421 1 27.6763 0.417185 406.123 27.6763 0.417185 406.123
422 1 28.5501 2.6336 405.196 28.5501 2.6336 405.196
424 1 29.4189 0.417906 404.258 29.4189 0.417906 404.258
426 1 30.9405 3.37433 405.691 30.9405 3.37433 405.691
425 1 30.0679 1.15781 406.624 30.0679 1.15781 406.624
430 1 32.6857 3.37476 403.83 32.6857 3.37476 403.83
428 1 31.816 1.16344 404.763 31.816 1.16344 404.763
429 1 32.461 1.89644 407.123 32.461 1.89644 407.123
432 1 34.2082 1.89723 405.256 34.2082 1.89723 405.256
431 1 33.3338 4.11055 406.192 33.3338 4.11055 406.192
435 1 35.7293 0.419415 406.689 35.7293 0.419415 406.689
436 1 36.6019 2.63192 405.752 36.6019 2.63192 405.752
434 1 35.0831 4.11183 404.334 35.0831 4.11183 404.334
440 1 38.3465 2.63217 403.888 38.3465 2.63217 403.888
438 1 37.4793 0.420633 404.823 37.4793 0.420633 404.823
439 1 38.1225 1.15507 407.184 38.1225 1.15507 407.184
442 1 39.8688 1.15609 405.315 39.8688 1.15609 405.315
441 1 38.9947 3.36879 406.251 38.9947 3.36879 406.251
444 1 40.7419 3.37164 404.392 40.7419 3.37164 404.392
446 1 42.2611 1.89194 405.811 42.2611 1.89194 405.811
445 1 41.3891 4.1063 406.748 41.3891 4.1063 406.748
450 1 44.0052 1.89229 403.946 44.0052 1.89229 403.946
451 1 44.6536 2.62914 406.31 44.6536 2.62914 406.31
448 1 43.1379 4.10831 404.881 43.1379 4.10831 404.881
449 1 43.7817 0.415225 407.243 43.7817 0.415225 407.243
452 1 45.5276 0.416431 405.373 45.5276 0.416431 405.373
454 1 46.4009 2.63189 404.451 46.4009 2.63189 404.451
457 1 48.7971 3.36872 404.94 48.7971 3.36872 404.94
455 1 47.0482 3.36678 406.807 47.0482 3.36678 406.807
456 1 47.9202 1.15239 405.87 47.9202 1.15239 405.87
459 1 49.6645 1.15268 404.006 49.6645 1.15268 404.006
458 1 49.4409 4.10328 407.302 49.4409 4.10328 407.302
460 1 50.3128 1.88972 406.369 50.3128 1.88972 406.369
463 1 52.0602 1.89245 404.51 52.0602 1.89245 404.51
461 1 51.1869 4.10445 405.433 51.1869 4.10445 405.433
464 1 52.7074 2.62751 406.866 52.7074 2.62751 406.866
465 1 53.5795 0.413105 405.929 53.5795 0.413105 405.929
468 1 55.3239 0.4134 404.066 55.3239 0.4134 404.066
466 1 54.4565 2.62944 405 54.4565 2.62944 405
469 1 55.9722 1.15058 406.429 55.9722 1.15058 406.429
467 1 55.1002 3.36415 407.362 55.1002 3.36415 407.362
470 1 56.8463 3.36531 405.493 56.8463 3.36531 405.493
472 1 57.7196 1.15331 404.57 57.7196 1.15331 404.57
475 1 60.1159 1.89043 405.06 60.1159 1.89043 405.06
473 1 58.3668 1.88851 406.926 58.3668 1.88851 406.926
474 1 59.2389 4.10155 405.99 59.2389 4.10155 405.99
477 1 60.9834 4.10185 404.126 60.9834 4.10185 404.126
481 1 63.3791 0.41441 404.63 63.3791 0.41441 404.63
478 1 61.6316 0.411687 406.49 61.6316 0.411687 406.49
479 1 62.5057 2.62641 405.553 62.5057 2.62641 405.553
482 1 64.0263 1.14969 406.987 64.0263 1.14969 406.987
476 1 60.7596 2.62526 407.422 60.7596 2.62526 407.422
483 1 64.8984 3.36273 406.05 64.8984 3.36273 406.05
486 1 66.6429 3.363 404.186 66.6429 3.363 404.186
488 1 68.1653 1.88758 405.613 68.1653 1.88758 405.613
484 1 65.7754 1.1516 405.12 65.7754 1.1516 405.12
487 1 67.2912 4.10034 406.55 67.2912 4.10034 406.55
485 1 66.4191 1.88648 407.482 66.4191 1.88648 407.482
490 1 69.0387 4.10301 404.691 69.0387 4.10301 404.691
493 1 70.558 2.62379 406.11 70.558 2.62379 406.11
491 1 69.6859 0.410823 407.047 69.6859 0.410823 407.047
494 1 71.4353 0.412641 405.18 71.4353 0.412641 405.18
492 1 69.908 1.88204 403.743 69.908 1.88204 403.743
496 1 72.3026 2.62394 404.246 72.3026 2.62394 404.246
497 1 72.9507 3.36085 406.609 72.9507 3.36085 406.609
500 1 74.6987 3.36275 404.749 74.6987 3.36275 404.749
498 1 73.8257 1.14782 405.672 73.8257 1.14782 405.672
502 1 75.5707 1.14122 403.798 75.5707 1.14122 403.798
501 1 75.3427 4.09931 407.109 75.3427 4.09931 407.109
503 1 76.2152 1.88484 406.172 76.2152 1.88484 406.172
506 1 77.9581 1.88562 404.308 77.9581 1.88562 404.308
507 1 78.6069 2.62612 406.673 78.6069 2.62612 406.673
504 1 77.0891 4.10128 405.245 77.0891 4.10128 405.245
508 1 79.4796 0.415203 405.741 79.4796 0.415203 405.741
510 1 80.3552 2.6318 404.813 80.3552 2.6318 404.813
512 1 81.2251 0.415715 403.881 81.2251 0.415715 403.881
514 1 82.7474 3.36625 405.308 82.7474 3.36625 405.308
516 1 83.6223 1.15342 404.386 83.6223 1.15342 404.386
513 1 81.8729 1.15212 406.243 81.8729 1.15212 406.243
511 1 81.0001 3.36545 407.174 81.0001 3.36545 407.174
517 1 84.2683 1.88916 406.741 84.2683 1.88916 406.741
523 1 87.5334 0.411776 406.305 87.5334 0.411776 406.305
520 1 86.0183 1.89032 404.875 86.0183 1.89032 404.875
518 1 85.141 4.10163 405.805 85.141 4.10163 405.805
522 1 86.8856 4.10187 403.941 86.8856 4.10187 403.941
521 1 86.6613 2.62559 407.237 86.6613 2.62559 407.237
526 1 89.2804 0.414462 404.446 89.2804 0.414462 404.446
528 1 90.7994 3.36302 405.866 90.7994 3.36302 405.866
524 1 88.4074 2.62644 405.369 88.4074 2.62644 405.369
529 1 91.6759 1.15175 404.937 91.6759 1.15175 404.937
527 1 89.9276 1.1501 406.803 89.9276 1.1501 406.803
536 1 95.5861 0.412656 406.864 95.5861 0.412656 406.864
531 1 92.543 3.36301 404.003 92.543 3.36301 404.003
533 1 94.065 1.88807 405.431 94.065 1.88807 405.431
532 1 93.1916 4.10112 406.367 93.1916 4.10112 406.367
535 1 94.9378 4.10314 404.508 94.9378 4.10314 404.508
530 1 92.32 1.88748 407.299 92.32 1.88748 407.299
538 1 97.3337 0.413577 404.999 97.3337 0.413577 404.999
541 1 98.8505 3.3653 406.429 98.8505 3.3653 406.429
540 1 98.2 2.62418 404.066 98.2 2.62418 404.066
537 1 96.4575 2.6253 405.928 96.4575 2.6253 405.928
539 1 97.9795 1.1515 407.36 97.9795 1.1515 407.36
546 1 102.123 1.89171 405.984 102.123 1.89171 405.984
544 1 100.594 3.36751 404.573 100.594 3.36751 404.573
542 1 99.7233 1.15243 405.494 99.7233 1.15243 405.494
547 1 102.999 4.10829 405.054 102.999 4.10829 405.054
545 1 101.25 4.10568 406.922 101.25 4.10568 406.922
553 1 106.265 2.62865 404.609 106.265 2.62865 404.609
550 1 104.518 2.62751 406.477 104.518 2.62751 406.477
554 1 106.912 3.36596 406.97 106.912 3.36596 406.97
549 1 103.873 1.89257 404.115 103.873 1.89257 404.115
551 1 105.392 0.414371 405.541 105.392 0.414371 405.541
548 1 103.645 0.414028 407.413 103.645 0.414028 407.413
560 1 -61.5588 0.414451 409.834 -61.5588 0.414451 409.834
558 1 -63.0765 1.89009 408.402 -63.0765 1.89009 408.402
562 1 -60.6865 2.63081 408.9 -60.6865 2.63081 408.9
559 1 -62.4312 2.62613 410.768 -62.4312 2.62613 410.768
556 1 -63.9492 4.10201 409.336 -63.9492 4.10201 409.336
273 1 -59.8149 0.420147 407.967 -59.8149 0.420147 407.967
565 1 -58.2948 3.3691 409.4 -58.2948 3.3691 409.4
568 1 -56.7757 1.89129 410.834 -56.7757 1.89129 410.834
567 1 -57.421 1.15646 408.47 -57.421 1.15646 408.47
564 1 -59.1679 1.15364 410.333 -59.1679 1.15364 410.333
563 1 -60.0404 3.36536 411.266 -60.0404 3.36536 411.266
573 1 -53.5074 0.414422 410.404 -53.5074 0.414422 410.404
571 1 -55.0261 1.89125 408.973 -55.0261 1.89125 408.973
283 1 -54.1496 4.10341 408.042 -54.1496 4.10341 408.042
569 1 -55.9014 4.10536 409.902 -55.9014 4.10536 409.902
574 1 -52.6318 2.62801 409.475 -52.6318 2.62801 409.475
572 1 -54.3824 2.6283 411.335 -54.3824 2.6283 411.335
576 1 -51.7564 0.413722 408.543 -51.7564 0.413722 408.543
578 1 -50.2386 3.36601 409.976 -50.2386 3.36601 409.976
289 1 -50.8811 2.62871 407.614 -50.8811 2.62871 407.614
580 1 -49.364 1.15284 409.044 -49.364 1.15284 409.044
577 1 -51.1137 1.15182 410.906 -51.1137 1.15182 410.906
293 1 -48.4898 3.368 408.113 -48.4898 3.368 408.113
299 1 -45.2228 1.89287 407.678 -45.2228 1.89287 407.678
583 1 -46.9712 1.89115 409.543 -46.9712 1.89115 409.543
585 1 -46.097 4.10581 408.612 -46.097 4.10581 408.612
582 1 -47.8456 4.10401 410.475 -47.8456 4.10401 410.475
586 1 -45.4528 0.414036 410.974 -45.4528 0.414036 410.974
589 1 -43.7042 0.415585 409.11 -43.7042 0.415585 409.11
591 1 -42.1859 3.36568 410.539 -42.1859 3.36568 410.539
303 1 -42.8305 2.62964 408.177 -42.8305 2.62964 408.177
587 1 -44.5786 2.62843 410.041 -44.5786 2.62843 410.041
592 1 -41.3117 1.15277 409.607 -41.3117 1.15277 409.607
309 1 -39.5641 1.15437 407.741 -39.5641 1.15437 407.741