ITEM: TIMESTEP
0
ITEM: NUMBER OF ATOMS
4630
ITEM: BOX BOUNDS xy xz yz pp pp pp
-6.4048516431157793e+01 1.0706754827935779e+02 0.0000000000000000e+00
0.0000000000000000e+00 4.4274527100805940e+00 0.0000000000000000e+00
3.8000000000000000e+02 5.0000000000000000e+02 0.0000000000000000e+00
ITEM: ATOMS id type x y z xu yu zu
27 1 -46.1411 1.97529 399.733 -46.1411 1.97529 399.733
36 1 -40.4933 1.2347 399.792 -40.4933 1.2347 399.792
31 1 -43.7415 2.67341 400.172 -43.7415 2.67341 400.172
22 1 -49.3643 3.42628 400.137 -49.3643 3.42628 400.137
20 1 -50.2562 1.20353 400.977 -50.2562 1.20353 400.977
40 1 -38.0956 1.93396 400.233 -38.0956 1.93396 400.233
34 1 -41.362 3.43293 400.621 -41.362 3.43293 400.621
17 1 -52.6397 0.454064 400.533 -52.6397 0.454064 400.533
9 1 -58.2564 1.14759 400.441 -58.2564 1.14759 400.441
43 1 -35.7168 2.69427 400.683 -35.7168 2.69427 400.683
12 1 -55.9021 1.95324 400.92 -55.9021 1.95324 400.92
5 1 -60.6482 0.463841 399.979 -60.6482 0.463841 399.979
29 1 -44.6095 0.444786 401.022 -44.6095 0.444786 401.022
853 1 -57.6973 2.64948 415.031 -57.6973 2.64948 415.031
873 1 -46.404 1.17435 415.165 -46.404 1.17435 415.165
865 1 -50.5362 0.434336 416.531 -50.5362 0.434336 416.531
1174 1 -37.7256 1.90538 418.094 -37.7256 1.90538 418.094
883 1 -40.7564 0.435434 415.23 -40.7564 0.435434 415.23
863 1 -52.0521 1.91301 415.098 -52.0521 1.91301 415.098
315 1 -35.9443 1.19535 403.96 -35.9443 1.19535 403.96
307 1 -40.9434 2.66719 406.265 -40.9434 2.66719 406.265
1150 1 -52.2793 0.430228 418.398 -52.2793 0.430228 418.398
855 1 -56.1818 1.17113 416.465 -56.1818 1.17113 416.465
310 1 -39.1999 2.67286 404.403 -39.1999 2.67286 404.403
871 1 -47.2762 3.38647 416.098 -47.2762 3.38647 416.098
16 1 -53.5079 2.65242 401.384 -53.5079 2.65242 401.384
309 1 -39.4273 1.18853 407.696 -39.4273 1.18853 407.696
1156 1 -49.0202 3.38301 417.964 -49.0202 3.38301 417.964
867 1 -49.6642 2.64986 415.598 -49.6642 2.64986 415.598
1159 1 -46.6325 4.11969 418.464 -46.6325 4.11969 418.464
1168 1 -40.985 3.38076 418.529 -40.985 3.38076 418.529
1170 1 -40.113 1.1687 417.596 -40.113 1.1687 417.596
594 1 -40.2991 3.40029 408.631 -40.2991 3.40029 408.631
37 1 -39.8432 1.94025 402.062 -39.8432 1.94025 402.062
851 1 -58.5682 0.433291 415.966 -58.5682 0.433291 415.966
857 1 -55.3108 3.38724 415.531 -55.3108 3.38724 415.531
592 1 -41.1708 1.18474 409.564 -41.1708 1.18474 409.564
849 1 -59.4393 2.64462 416.9 -59.4393 2.64462 416.9
877 1 -44.0161 1.91088 415.664 -44.0161 1.91088 415.664
1143 1 -57.0529 3.38248 417.399 -57.0529 3.38248 417.399
1140 1 -58.795 3.37779 419.267 -58.795 3.37779 419.267
845 1 -61.8255 1.90676 416.401 -61.8255 1.90676 416.401
875 1 -44.8883 4.123 416.597 -44.8883 4.123 416.597
886 1 -39.0124 0.438955 413.362 -39.0124 0.438955 413.362
891 1 -35.7535 3.39135 412.927 -35.7535 3.39135 412.927
39 1 -38.3326 0.453858 403.455 -38.3326 0.453858 403.455
1177 1 -36.2102 0.426642 419.527 -36.2102 0.426642 419.527
1167 1 -41.8571 1.16537 419.462 -41.8571 1.16537 419.462
8 1 -59.1345 3.40156 401.395 -59.1345 3.40156 401.395
869 1 -48.1483 1.17108 417.031 -48.1483 1.17108 417.031
1136 1 -61.1815 2.64001 418.769 -61.1815 2.64001 418.769
1162 1 -45.1167 2.64083 419.897 -45.1167 2.64083 419.897
15 1 -54.3827 0.457953 402.366 -54.3827 0.457953 402.366
280 1 -56.131 0.450765 404.207 -56.131 0.450765 404.207
277 1 -57.8875 0.458725 406.063 -57.8875 0.458725 406.063
273 1 -59.6325 0.454022 407.925 -59.6325 0.454022 407.925
560 1 -61.3723 0.446263 409.795 -61.3723 0.446263 409.795
557 1 -63.1135 0.44043 411.665 -63.1135 0.44043 411.665
26 1 -46.355 0.463006 402.896 -46.355 0.463006 402.896
294 1 -48.1029 0.460529 404.771 -48.1029 0.460529 404.771
291 1 -49.8478 0.451717 406.635 -49.8478 0.451717 406.635
576 1 -51.5925 0.447122 408.5 -51.5925 0.447122 408.5
573 1 -53.3392 0.445474 410.365 -53.3392 0.445474 410.365
570 1 -55.0839 0.442718 412.23 -55.0839 0.442718 412.23
854 1 -56.8263 0.438216 414.097 -56.8263 0.438216 414.097
305 1 -41.8138 0.451938 407.199 -41.8138 0.451938 407.199
589 1 -43.5581 0.448172 409.066 -43.5581 0.448172 409.066
586 1 -45.3025 0.44439 410.933 -45.3025 0.44439 410.933
872 1 -47.0472 0.440943 412.799 -47.0472 0.440943 412.799
599 1 -37.2687 0.442699 411.495 -37.2687 0.442699 411.495
1132 1 -63.5679 1.90233 418.27 -63.5679 1.90233 418.27
4 1 -60.9297 3.42978 403.18 -60.9297 3.42978 403.18
268 1 -62.6622 3.40855 405.048 -62.6622 3.40855 405.048
1152 1 -51.4078 2.64607 417.464 -51.4078 2.64607 417.464
19 1 -51.1387 3.39673 401.898 -51.1387 3.39673 401.898
286 1 -52.8729 3.39692 403.756 -52.8729 3.39692 403.756
282 1 -54.6176 3.40029 405.631 -54.6176 3.40029 405.631
279 1 -56.3698 3.40332 407.495 -56.3698 3.40332 407.495
565 1 -58.1157 3.40122 409.36 -58.1157 3.40122 409.36
563 1 -59.857 3.39534 411.229 -59.857 3.39534 411.229
846 1 -61.5985 3.38978 413.099 -61.5985 3.38978 413.099
32 1 -43.0977 3.40927 402.485 -43.0977 3.40927 402.485
300 1 -44.8443 3.41102 404.343 -44.8443 3.41102 404.343
297 1 -46.5898 3.40656 406.203 -46.5898 3.40656 406.203
293 1 -48.3332 3.40188 408.069 -48.3332 3.40188 408.069
578 1 -50.0778 3.39765 409.935 -50.0778 3.39765 409.935
575 1 -51.8236 3.39486 411.799 -51.8236 3.39486 411.799
860 1 -53.568 3.39161 413.664 -53.568 3.39161 413.664
591 1 -42.043 3.39653 410.498 -42.043 3.39653 410.498
588 1 -43.7872 3.393 412.365 -43.7872 3.393 412.365
874 1 -45.5317 3.38966 414.232 -45.5317 3.38966 414.232
10 1 -57.6385 1.91646 402.784 -57.6385 1.91646 402.784
274 1 -59.4082 1.94167 404.622 -59.4082 1.94167 404.622
271 1 -61.1486 1.9329 406.488 -61.1486 1.9329 406.488
558 1 -62.8868 1.92377 408.361 -62.8868 1.92377 408.361
24 1 -47.8887 1.93208 401.491 -47.8887 1.93208 401.491
21 1 -49.6242 1.93567 403.333 -49.6242 1.93567 403.333
288 1 -51.3603 1.92827 405.204 -51.3603 1.92827 405.204
285 1 -53.1059 1.92422 407.07 -53.1059 1.92422 407.07
571 1 -54.8547 1.92399 408.931 -54.8547 1.92399 408.931
568 1 -56.5998 1.92171 410.795 -56.5998 1.92171 410.795
852 1 -58.3418 1.91675 412.663 -58.3418 1.91675 412.663
848 1 -60.0835 1.91156 414.532 -60.0835 1.91156 414.532
306 1 -41.5887 1.9334 403.898 -41.5887 1.9334 403.898
302 1 -43.3299 1.93001 405.764 -43.3299 1.93001 405.764
299 1 -45.0735 1.92719 407.633 -45.0735 1.92719 407.633
583 1 -46.8177 1.92325 409.501 -46.8177 1.92325 409.501
581 1 -48.5626 1.91946 411.367 -48.5626 1.91946 411.367
866 1 -50.3079 1.91641 413.232 -50.3079 1.91641 413.232
880 1 -42.2718 1.91422 413.797 -42.2718 1.91422 413.797
312 1 -37.6849 1.19206 405.826 -37.6849 1.19206 405.826
2 1 -62.4584 0.481393 401.745 -62.4584 0.481393 401.745
13 1 -55.25 2.6655 403.261 -55.25 2.6655 403.261
278 1 -57.0072 2.66806 405.131 -57.0072 2.66806 405.131
275 1 -58.761 2.6711 406.99 -58.761 2.6711 406.99
562 1 -60.502 2.66366 408.859 -60.502 2.66366 408.859
559 1 -62.2426 2.65686 410.73 -62.2426 2.65686 410.73
1166 1 -42.729 3.37742 420.396 -42.729 3.37742 420.396
889 1 -36.6253 1.17576 413.861 -36.6253 1.17576 413.861
28 1 -45.4865 2.67853 402.003 -45.4865 2.67853 402.003
296 1 -47.2349 2.6738 403.837 -47.2349 2.6738 403.837
292 1 -48.9765 2.6698 405.701 -48.9765 2.6698 405.701
289 1 -50.7193 2.66324 407.569 -50.7193 2.66324 407.569
574 1 -52.4657 2.66022 409.434 -52.4657 2.66022 409.434
572 1 -54.2119 2.65818 411.297 -54.2119 2.65818 411.297
856 1 -55.9553 2.65436 413.163 -55.9553 2.65436 413.163
303 1 -42.6865 2.66336 408.132 -42.6865 2.66336 408.132
587 1 -44.4304 2.6599 409.999 -44.4304 2.6599 409.999
584 1 -46.1748 2.65633 411.866 -46.1748 2.65633 411.866
870 1 -47.9196 2.65308 413.732 -47.9196 2.65308 413.732
6 1 -60.0412 1.20964 402.264 -60.0412 1.20964 402.264
270 1 -61.7964 1.20467 404.108 -61.7964 1.20467 404.108
267 1 -63.5296 1.19041 405.989 -63.5296 1.19041 405.989
890 1 -35.9818 1.90891 416.227 -35.9818 1.90891 416.227
18 1 -51.9958 1.18633 402.845 -51.9958 1.18633 402.845
284 1 -53.7426 1.18841 404.708 -53.7426 1.18841 404.708
281 1 -55.4946 1.1885 406.567 -55.4946 1.1885 406.567
567 1 -57.2441 1.1897 408.428 -57.2441 1.1897 408.428
564 1 -58.9866 1.18469 410.295 -58.9866 1.18469 410.295
561 1 -60.7277 1.17873 412.164 -60.7277 1.17873 412.164
844 1 -62.4695 1.17358 414.033 -62.4695 1.17358 414.033
33 1 -42.2465 1.19428 401.546 -42.2465 1.19428 401.546
30 1 -43.9767 1.19188 403.394 -43.9767 1.19188 403.394
298 1 -45.7172 1.19479 405.266 -45.7172 1.19479 405.266
295 1 -47.461 1.19084 407.136 -47.461 1.19084 407.136
580 1 -49.2053 1.18562 409.001 -49.2053 1.18562 409.001
577 1 -50.9508 1.18232 410.866 -50.9508 1.18232 410.866
862 1 -52.6961 1.17961 412.731 -52.6961 1.17961 412.731
590 1 -42.915 1.18108 411.432 -42.915 1.18108 411.432
876 1 -44.6593 1.17758 413.299 -44.6593 1.17758 413.299
1163 1 -44.2447 0.428804 418.963 -44.2447 0.428804 418.963
1153 1 -50.7635 3.37903 419.831 -50.7635 3.37903 419.831
311 1 -38.5552 3.40488 406.764 -38.5552 3.40488 406.764
42 1 -36.6018 0.455454 401.607 -36.6018 0.455454 401.607
1135 1 -62.0526 0.424074 419.703 -62.0526 0.424074 419.703
1171 1 -39.4695 1.90198 419.961 -39.4695 1.90198 419.961
1139 1 -59.6662 1.16179 420.202 -59.6662 1.16179 420.202
601 1 -36.3971 2.65831 410.561 -36.3971 2.65831 410.561
313 1 -36.81 3.40982 404.894 -36.81 3.40982 404.894
858 1 -54.4395 1.17578 414.597 -54.4395 1.17578 414.597
868 1 -48.792 0.437805 414.665 -48.792 0.437805 414.665
1147 1 -54.6663 4.12021 417.899 -54.6663 4.12021 417.899
843 1 -63.3406 3.38497 414.968 -63.3406 3.38497 414.968
593 1 -40.5277 1.91774 411.93 -40.5277 1.91774 411.93
308 1 -40.0711 0.455906 405.328 -40.0711 0.455906 405.328
861 1 -52.9237 4.12471 416.031 -52.9237 4.12471 416.031
1158 1 -47.5044 1.90418 419.397 -47.5044 1.90418 419.397
884 1 -39.8844 2.6509 414.296 -39.8844 2.6509 414.296
881 1 -41.6285 2.64747 416.163 -41.6285 2.64747 416.163
885 1 -39.241 3.38413 416.662 -39.241 3.38413 416.662
859 1 -53.795 1.90877 416.965 -53.795 1.90877 416.965
596 1 -38.784 1.92141 410.062 -38.784 1.92141 410.062
879 1 -42.5006 0.432091 417.097 -42.5006 0.432091 417.097
1172 1 -38.5976 4.11739 419.028 -38.5976 4.11739 419.028
1154 1 -49.8919 1.16735 418.898 -49.8919 1.16735 418.898
887 1 -38.369 1.17214 415.728 -38.369 1.17214 415.728
597 1 -38.1405 2.6545 412.429 -38.1405 2.6545 412.429
1161 1 -45.7605 1.90765 417.531 -45.7605 1.90765 417.531
1138 1 -60.3103 0.428554 417.834 -60.3103 0.428554 417.834
1149 1 -53.1506 2.64174 419.332 -53.1506 2.64174 419.332
41 1 -37.4535 2.67083 402.546 -37.4535 2.67083 402.546
888 1 -37.4971 3.38765 414.795 -37.4971 3.38765 414.795
1165 1 -43.3727 2.64418 418.03 -43.3727 2.64418 418.03
1141 1 -57.9239 1.16638 418.333 -57.9239 1.16638 418.333
1145 1 -55.5374 1.90415 418.832 -55.5374 1.90415 418.832
600 1 -37.041 1.92523 408.194 -37.041 1.92523 408.194
1148 1 -54.0218 0.425751 420.266 -54.0218 0.425751 420.266
882 1 -41.3997 4.12966 412.864 -41.3997 4.12966 412.864
1157 1 -48.3761 4.11602 420.331 -48.3761 4.11602 420.331
1144 1 -56.4085 4.11556 419.767 -56.4085 4.11556 419.767
602 1 -35.5253 0.446696 409.627 -35.5253 0.446696 409.627
1131 1 -63.7951 0.419808 421.571 -63.7951 0.419808 421.571
1755 1 -36.0229 2.6229 428.493 -36.0229 2.6229 428.493
1460 1 -40.5696 2.63178 424.195 -40.5696 2.63178 424.195
2308 1 -50.383 3.3413 437.767 -50.383 3.3413 437.767
2316 1 -45.3822 1.87079 435.464 -45.3822 1.87079 435.464
2312 1 -47.9962 4.07845 438.266 -47.9962 4.07845 438.266
1464 1 -38.1822 3.36845 424.694 -38.1822 3.36845 424.694
1461 1 -39.6978 0.419789 423.261 -39.6978 0.419789 423.261
2039 1 -38.8653 3.34867 434.594 -38.8653 3.34867 434.594
2613 1 -40.8356 1.86219 439.762 -40.8356 1.86219 439.762
1467 1 -35.7949 4.10515 425.193 -35.7949 4.10515 425.193
2603 1 -46.4807 2.5998 439.699 -46.4807 2.5998 439.699
1443 1 -50.1191 4.11196 422.198 -50.1191 4.11196 422.198
1748 1 -39.9257 3.36492 426.561 -39.9257 3.36492 426.561
2023 1 -47.7691 1.13371 434.965 -47.7691 1.13371 434.965
2310 1 -48.8675 1.86269 439.2 -48.8675 1.86269 439.2
1151 1 -51.6348 1.16316 420.765 -51.6348 1.16316 420.765
2303 1 -53.641 0.38829 438.203 -53.641 0.38829 438.203
2299 1 -56.0278 4.07844 437.704 -56.0278 4.07844 437.704
2033 1 -42.1238 0.396066 435.029 -42.1238 0.396066 435.029
1433 1 -55.7642 0.42121 422.134 -55.7642 0.42121 422.134
1430 1 -57.5065 0.416739 424.002 -57.5065 0.416739 424.002
1426 1 -59.249 0.412368 425.87 -59.249 0.412368 425.87
1713 1 -60.9914 0.408095 427.738 -60.9914 0.408095 427.738
1710 1 -62.7339 0.403902 429.606 -62.7339 0.403902 429.606
2330 1 -36.7057 2.6031 438.393 -36.7057 2.6031 438.393
1160 1 -45.9885 0.425333 420.83 -45.9885 0.425333 420.83
1447 1 -47.7318 0.421533 422.697 -47.7318 0.421533 422.697
1444 1 -49.4747 0.417452 424.565 -49.4747 0.417452 424.565
1730 1 -51.2174 0.413222 426.432 -51.2174 0.413222 426.432
1727 1 -52.96 0.408944 428.3 -52.96 0.408944 428.3
1724 1 -54.7025 0.404671 430.168 -54.7025 0.404671 430.168
2008 1 -56.445 0.400426 432.037 -56.445 0.400426 432.037
2006 1 -58.1875 0.396214 433.905 -58.1875 0.396214 433.905
1458 1 -41.4414 0.416278 425.128 -41.4414 0.416278 425.128
1743 1 -43.1847 0.412594 426.996 -43.1847 0.412594 426.996
1740 1 -44.9277 0.408732 428.863 -44.9277 0.408732 428.863
2026 1 -46.6706 0.404737 430.731 -46.6706 0.404737 430.731
2022 1 -48.4133 0.400661 432.599 -48.4133 0.400661 432.599
2019 1 -50.1559 0.396546 434.467 -50.1559 0.396546 434.467
2309 1 -49.5117 1.12962 436.833 -49.5117 1.12962 436.833
1137 1 -60.5373 3.37329 421.136 -60.5373 3.37329 421.136
1421 1 -62.2798 3.36896 423.004 -62.2798 3.36896 423.004
1439 1 -52.5061 3.3747 421.699 -52.5061 3.3747 421.699
1435 1 -54.2486 3.37026 423.567 -54.2486 3.37026 423.567
1432 1 -55.9911 3.36584 425.435 -55.9911 3.36584 425.435
1719 1 -57.7335 3.36148 427.303 -57.7335 3.36148 427.303
1716 1 -59.476 3.3572 429.171 -59.476 3.3572 429.171
2001 1 -61.2185 3.35299 431.039 -61.2185 3.35299 431.039
1998 1 -62.961 3.34882 432.907 -62.961 3.34882 432.907
2323 1 -40.6083 3.34481 436.462 -40.6083 3.34481 436.462
1453 1 -44.4728 3.37394 422.263 -44.4728 3.37394 422.263
1450 1 -46.2161 3.37019 424.13 -46.2161 3.37019 424.13
1446 1 -47.959 3.3662 425.998 -47.959 3.3662 425.998
1732 1 -49.7018 3.36207 427.865 -49.7018 3.36207 427.865
1729 1 -51.4444 3.35786 429.733 -51.4444 3.35786 429.733
2014 1 -53.187 3.35364 431.601 -53.187 3.35364 431.601
2011 1 -54.9295 3.34943 433.469 -54.9295 3.34943 433.469
1745 1 -41.669 3.36126 428.428 -41.669 3.36126 428.428
1742 1 -43.4121 3.35743 430.296 -43.4121 3.35743 430.296
2028 1 -45.155 3.35349 432.164 -45.155 3.35349 432.164
2025 1 -46.8977 3.34946 434.031 -46.8977 3.34946 434.031
1427 1 -59.022 1.89503 422.569 -59.022 1.89503 422.569
1424 1 -60.7644 1.89067 424.437 -60.7644 1.89067 424.437
1711 1 -62.5069 1.88643 426.305 -62.5069 1.88643 426.305
2322 1 -41.4797 1.12912 437.396 -41.4797 1.12912 437.396
1750 1 -38.4101 1.88614 427.994 -38.4101 1.88614 427.994
1155 1 -49.2476 1.9003 421.264 -49.2476 1.9003 421.264
1441 1 -50.9904 1.89611 423.132 -50.9904 1.89611 423.132
1438 1 -52.733 1.89178 425 -52.733 1.89178 425
1725 1 -54.4755 1.88742 426.868 -54.4755 1.88742 426.868
1722 1 -56.218 1.8831 428.736 -56.218 1.8831 428.736
1718 1 -57.9605 1.87883 430.604 -57.9605 1.87883 430.604
2003 1 -59.703 1.87461 432.472 -59.703 1.87461 432.472
2000 1 -61.4455 1.87043 434.34 -61.4455 1.87043 434.34
1459 1 -41.2134 1.8986 421.828 -41.2134 1.8986 421.828
1455 1 -42.957 1.8951 423.696 -42.957 1.8951 423.696
1452 1 -44.7004 1.89139 425.563 -44.7004 1.89139 425.563
1737 1 -46.4434 1.88748 427.43 -46.4434 1.88748 427.43
1735 1 -48.1862 1.88342 429.298 -48.1862 1.88342 429.298
2020 1 -49.9288 1.87928 431.166 -49.9288 1.87928 431.166
2017 1 -51.6714 1.87512 433.034 -51.6714 1.87512 433.034
2034 1 -41.8965 1.87869 431.729 -41.8965 1.87869 431.729
2031 1 -43.6394 1.87478 433.596 -43.6394 1.87478 433.596
2029 1 -44.5108 4.08652 434.53 -44.5108 4.08652 434.53
1146 1 -54.893 2.6372 421.2 -54.893 2.6372 421.2
1431 1 -56.6353 2.63269 423.068 -56.6353 2.63269 423.068
1428 1 -58.3777 2.62827 424.936 -58.3777 2.62827 424.936
1715 1 -60.1202 2.62395 426.804 -60.1202 2.62395 426.804
1712 1 -61.8627 2.61972 428.672 -61.8627 2.61972 428.672
1708 1 -63.6052 2.61556 430.541 -63.6052 2.61556 430.541
1747 1 -40.1534 1.88248 429.861 -40.1534 1.88248 429.861
1449 1 -46.8602 2.6372 421.764 -46.8602 2.6372 421.764
1445 1 -48.6033 2.63325 423.631 -48.6033 2.63325 423.631
1442 1 -50.3461 2.62907 425.499 -50.3461 2.62907 425.499
1728 1 -52.0887 2.62481 427.366 -52.0887 2.62481 427.366
1726 1 -53.8312 2.62053 429.234 -53.8312 2.62053 429.234
2010 1 -55.5738 2.61627 431.103 -55.5738 2.61627 431.103
2007 1 -57.3162 2.61204 432.971 -57.3162 2.61204 432.971
1456 1 -42.3131 2.62819 426.062 -42.3131 2.62819 426.062
1741 1 -44.0562 2.62441 427.929 -44.0562 2.62441 427.929
1738 1 -45.7992 2.62047 429.797 -45.7992 2.62047 429.797
2024 1 -47.5419 2.61643 431.665 -47.5419 2.61643 431.665
2021 1 -49.2846 2.61233 433.533 -49.2846 2.61233 433.533
2035 1 -41.2524 2.61174 434.095 -41.2524 2.61174 434.095
1754 1 -36.6667 1.88968 426.126 -36.6667 1.88968 426.126
1423 1 -61.4085 1.15738 422.07 -61.4085 1.15738 422.07
1420 1 -63.151 1.15312 423.939 -63.151 1.15312 423.939
2044 1 -35.6067 1.87373 434.159 -35.6067 1.87373 434.159
1437 1 -53.3774 1.15876 422.633 -53.3774 1.15876 422.633
1434 1 -55.1198 1.15432 424.501 -55.1198 1.15432 424.501
1721 1 -56.8623 1.14993 426.369 -56.8623 1.14993 426.369
1717 1 -58.6047 1.14561 428.237 -58.6047 1.14561 428.237
1714 1 -60.3472 1.14136 430.105 -60.3472 1.14136 430.105
1999 1 -62.0897 1.13717 431.973 -62.0897 1.13717 431.973
1997 1 -63.8322 1.13302 433.841 -63.8322 1.13302 433.841
1164 1 -43.6009 1.16198 421.329 -43.6009 1.16198 421.329
1451 1 -45.3445 1.15837 423.196 -45.3445 1.15837 423.196
1448 1 -47.0876 1.1545 425.064 -47.0876 1.1545 425.064
1734 1 -48.8304 1.15042 426.931 -48.8304 1.15042 426.931
1731 1 -50.5731 1.14624 428.799 -50.5731 1.14624 428.799
2016 1 -52.3157 1.14203 430.667 -52.3157 1.14203 430.667
2012 1 -54.0582 1.13781 432.535 -54.0582 1.13781 432.535
2009 1 -55.8008 1.13361 434.403 -55.8008 1.13361 434.403
1746 1 -40.7974 1.14938 427.495 -40.7974 1.14938 427.495
1744 1 -42.5406 1.14564 429.362 -42.5406 1.14564 429.362
2030 1 -44.2835 1.14175 431.23 -44.2835 1.14175 431.23
2027 1 -46.0264 1.13776 433.098 -46.0264 1.13776 433.098
2325 1 -39.7368 1.13303 435.528 -39.7368 1.13303 435.528
1749 1 -39.2818 4.09805 428.927 -39.2818 4.09805 428.927
1425 1 -59.8932 4.10656 423.503 -59.8932 4.10656 423.503
1736 1 -47.3148 4.09919 428.364 -47.3148 4.09919 428.364
1142 1 -57.2796 1.89953 420.701 -57.2796 1.89953 420.701
1720 1 -57.0893 4.09469 429.67 -57.0893 4.09469 429.67
2005 1 -58.8317 4.09044 431.538 -58.8317 4.09044 431.538
2002 1 -60.5742 4.08624 433.406 -60.5742 4.08624 433.406
1169 1 -40.3415 4.11402 420.895 -40.3415 4.11402 420.895
1723 1 -55.3468 4.09898 427.802 -55.3468 4.09898 427.802
1440 1 -51.8618 4.10768 424.066 -51.8618 4.10768 424.066
1733 1 -49.0575 4.09508 430.232 -49.0575 4.09508 430.232
2018 1 -50.8002 4.09093 432.1 -50.8002 4.09093 432.1
2015 1 -52.5427 4.08676 433.968 -52.5427 4.08676 433.968
2036 1 -41.025 4.09432 430.795 -41.025 4.09432 430.795
2032 1 -42.7679 4.09047 432.662 -42.7679 4.09047 432.662
2326 1 -39.0927 1.86612 437.894 -39.0927 1.86612 437.894
1752 1 -37.5384 4.10165 427.06 -37.5384 4.10165 427.06
1457 1 -42.0853 4.1106 422.762 -42.0853 4.1106 422.762
2043 1 -36.2506 1.14055 431.793 -36.2506 1.14055 431.793
2286 1 -63.1879 1.86627 436.208 -63.1879 1.86627 436.208
2319 1 -43.2225 1.12515 439.263 -43.2225 1.12515 439.263
1436 1 -53.6043 4.10332 425.934 -53.6043 4.10332 425.934
1422 1 -61.6356 4.10226 425.371 -61.6356 4.10226 425.371
1173 1 -37.954 0.423206 421.394 -37.954 0.423206 421.394
2293 1 -59.2857 1.12527 438.14 -59.2857 1.12527 438.14
2289 1 -61.6724 0.387868 437.641 -61.6724 0.387868 437.641
2295 1 -57.7702 4.0743 439.572 -57.7702 4.0743 439.572
1465 1 -37.3104 1.15645 423.76 -37.3104 1.15645 423.76
2315 1 -45.6093 0.388092 438.765 -45.6093 0.388092 438.765
2331 1 -36.4783 4.08558 435.093 -36.4783 4.08558 435.093
2297 1 -56.899 1.86264 438.638 -56.899 1.86264 438.638
2324 1 -39.9642 4.07789 438.828 -39.9642 4.07789 438.828
2306 1 -51.2543 1.12552 438.702 -51.2543 1.12552 438.702
2285 1 -63.4149 0.383712 439.509 -63.4149 0.383712 439.509
1462 1 -39.054 1.15298 425.627 -39.054 1.15298 425.627
1751 1 -37.7662 2.61929 430.36 -37.7662 2.61929 430.36
2329 1 -37.3498 1.86996 436.027 -37.3498 1.86996 436.027
2042 1 -37.1222 3.35244 432.726 -37.1222 3.35244 432.726
2041 1 -37.9938 1.13684 433.66 -37.9938 1.13684 433.66
2593 1 -52.1256 3.3372 439.636 -52.1256 3.3372 439.636
2328 1 -37.5772 0.38744 439.327 -37.5772 0.38744 439.327
2301 1 -54.5123 2.59996 439.137 -54.5123 2.59996 439.137
1466 1 -36.4385 3.3719 422.827 -36.4385 3.3719 422.827
2298 1 -56.672 3.34524 435.337 -56.672 3.34524 435.337
2321 1 -42.3511 3.34087 438.33 -42.3511 3.34087 438.33
2313 1 -47.1249 1.86675 437.332 -47.1249 1.86675 437.332
2294 1 -58.4145 3.34108 437.206 -58.4145 3.34108 437.206
2304 1 -52.7698 2.60408 437.269 -52.7698 2.60408 437.269
2300 1 -55.1565 1.86679 436.77 -55.1565 1.86679 436.77
2290 1 -60.8012 2.60367 436.707 -60.8012 2.60367 436.707
2318 1 -43.8666 0.392107 436.897 -43.8666 0.392107 436.897
2327 1 -38.2213 4.08178 436.961 -38.2213 4.08178 436.961
2004 1 -59.0587 2.60785 434.839 -59.0587 2.60785 434.839
2013 1 -53.414 1.87095 434.902 -53.414 1.87095 434.902
2288 1 -62.3167 4.08207 435.274 -62.3167 4.08207 435.274
2037 1 -40.3809 0.399945 433.161 -40.3809 0.399945 433.161
1739 1 -45.5719 4.10318 426.497 -45.5719 4.10318 426.497
1753 1 -36.8945 0.407379 429.426 -36.8945 0.407379 429.426
2307 1 -51.0272 2.60821 435.401 -51.0272 2.60821 435.401
2314 1 -46.2535 4.0825 436.398 -46.2535 4.0825 436.398
2040 1 -38.6378 0.403719 431.294 -38.6378 0.403719 431.294
2320 1 -42.9952 2.60782 435.963 -42.9952 2.60782 435.963
2292 1 -59.93 0.392031 435.773 -59.93 0.392031 435.773
2311 1 -48.6404 3.34539 435.899 -48.6404 3.34539 435.899
2302 1 -54.2853 4.08259 435.836 -54.2853 4.08259 435.836
2296 1 -57.5432 1.12943 436.271 -57.5432 1.12943 436.271
1463 1 -38.8259 2.63523 422.328 -38.8259 2.63523 422.328
2287 1 -62.5437 2.59952 438.575 -62.5437 2.59952 438.575
2291 1 -60.1569 3.33692 439.074 -60.1569 3.33692 439.074
2317 1 -44.738 2.60383 437.831 -44.738 2.60383 437.831
2038 1 -39.5094 2.61557 432.228 -39.5094 2.61557 432.228
2305 1 -51.8985 0.392417 436.335 -51.8985 0.392417 436.335
2332 1 -35.8342 0.391283 437.459 -35.8342 0.391283 437.459
1709 1 -63.3781 4.09807 427.24 -63.3781 4.09807 427.24
1468 1 -35.5667 1.1599 421.893 -35.5667 1.1599 421.893
1454 1 -43.8287 4.107 424.629 -43.8287 4.107 424.629
1429 1 -58.1508 4.11099 421.635 -58.1508 4.11099 421.635
1133 1 -62.9239 2.63564 420.637 -62.9239 2.63564 420.637
1175 1 -37.0821 2.63864 420.46 -37.0821 2.63864 420.46
2616 1 -38.6759 1.11662 443.561 -38.6759 1.11662 443.561
2901 1 -40.4186 1.11261 445.429 -40.4186 1.11261 445.429
2907 1 -37.1604 4.06545 444.994 -37.1604 4.06545 444.994
3194 1 -38.2589 0.367077 449.229 -38.2589 0.367077 449.229
2587 1 -55.3835 0.384175 440.071 -55.3835 0.384175 440.071
2597 1 -49.7388 4.07437 440.134 -49.7388 4.07437 440.134
2584 1 -57.126 0.380074 441.939 -57.126 0.380074 441.939
2581 1 -58.8685 0.375979 443.807 -58.8685 0.375979 443.807
2868 1 -60.6109 0.371871 445.675 -60.6109 0.371871 445.675
2865 1 -62.3532 0.367724 447.544 -62.3532 0.367724 447.544
2601 1 -47.352 0.384043 440.633 -47.352 0.384043 440.633
2598 1 -49.0946 0.379981 442.501 -49.0946 0.379981 442.501
2885 1 -50.8371 0.375927 444.369 -50.8371 0.375927 444.369
2882 1 -52.5797 0.3719 446.237 -52.5797 0.3719 446.237
2879 1 -54.3222 0.367907 448.105 -54.3222 0.367907 448.105
2612 1 -41.0628 0.379537 443.063 -41.0628 0.379537 443.063
2898 1 -42.8054 0.375503 444.931 -42.8054 0.375503 444.931
2895 1 -44.548 0.371439 446.799 -44.548 0.371439 446.799
3180 1 -46.2905 0.367376 448.667 -46.2905 0.367376 448.667
2576 1 -61.8994 3.33277 440.942 -61.8994 3.33277 440.942
2574 1 -63.6418 3.3286 442.81 -63.6418 3.3286 442.81
2589 1 -53.8681 3.33311 441.504 -53.8681 3.33311 441.504
2586 1 -55.6106 3.32905 443.372 -55.6106 3.32905 443.372
2874 1 -57.3531 3.32499 445.24 -57.3531 3.32499 445.24
2871 1 -59.0955 3.32094 447.108 -59.0955 3.32094 447.108
3155 1 -60.8379 3.31686 448.977 -60.8379 3.31686 448.977
2607 1 -44.0938 3.33687 440.197 -44.0938 3.33687 440.197
2604 1 -45.8365 3.33283 442.065 -45.8365 3.33283 442.065
2600 1 -47.5791 3.32877 443.934 -47.5791 3.32877 443.934
2887 1 -49.3216 3.32472 445.802 -49.3216 3.32472 445.802
2884 1 -51.0642 3.32069 447.67 -51.0642 3.32069 447.67
3168 1 -52.8067 3.3167 449.538 -52.8067 3.3167 449.538
2900 1 -41.2899 3.32431 446.363 -41.2899 3.32431 446.363
2897 1 -43.0324 3.32024 448.231 -43.0324 3.32024 448.231
2582 1 -58.6415 1.85851 440.506 -58.6415 1.85851 440.506
2579 1 -60.3839 1.85438 442.375 -60.3839 1.85438 442.375
2866 1 -62.1263 1.85023 444.243 -62.1263 1.85023 444.243
2578 1 -61.0282 1.12112 440.008 -61.0282 1.12112 440.008
2595 1 -50.6101 1.85861 441.068 -50.6101 1.85861 441.068
2592 1 -52.3526 1.85455 442.936 -52.3526 1.85455 442.936
2880 1 -54.0951 1.85051 444.805 -54.0951 1.85051 444.805
2877 1 -55.8376 1.84649 446.673 -55.8376 1.84649 446.673
2873 1 -57.5801 1.84249 448.541 -57.5801 1.84249 448.541
2609 1 -42.5783 1.8582 441.63 -42.5783 1.8582 441.63
2606 1 -44.3209 1.85417 443.498 -44.3209 1.85417 443.498
2892 1 -46.0635 1.8501 445.366 -46.0635 1.8501 445.366
2890 1 -47.8061 1.84604 447.234 -47.8061 1.84604 447.234
3174 1 -49.5486 1.84201 449.102 -49.5486 1.84201 449.102
2618 1 -37.8045 3.33233 442.628 -37.8045 3.33233 442.628
2585 1 -56.2548 2.59585 441.005 -56.2548 2.59585 441.005
2583 1 -57.9973 2.59175 442.873 -57.9973 2.59175 442.873
2870 1 -59.7397 2.58765 444.741 -59.7397 2.58765 444.741
2867 1 -61.4821 2.58353 446.61 -61.4821 2.58353 446.61
2863 1 -63.2244 2.57935 448.478 -63.2244 2.57935 448.478
2599 1 -48.2233 2.59574 441.567 -48.2233 2.59574 441.567
2596 1 -49.9658 2.59168 443.435 -49.9658 2.59168 443.435
2883 1 -51.7084 2.58764 445.303 -51.7084 2.58764 445.303
2881 1 -53.4509 2.58363 447.171 -53.4509 2.58363 447.171
3164 1 -55.1935 2.57965 449.04 -55.1935 2.57965 449.04
2610 1 -41.9341 2.59125 443.997 -41.9341 2.59125 443.997
2896 1 -43.6767 2.5872 445.865 -43.6767 2.5872 445.865
2893 1 -45.4192 2.58313 447.733 -45.4192 2.58313 447.733
3178 1 -47.1617 2.57908 449.601 -47.1617 2.57908 449.601
2575 1 -62.7706 1.11696 441.876 -62.7706 1.11696 441.876
2591 1 -52.9968 1.12143 440.57 -52.9968 1.12143 440.57
2588 1 -54.7393 1.11735 442.438 -54.7393 1.11735 442.438
2876 1 -56.4818 1.11329 444.306 -56.4818 1.11329 444.306
2872 1 -58.2243 1.10924 446.174 -58.2243 1.10924 446.174
2869 1 -59.9667 1.10518 448.042 -59.9667 1.10518 448.042
2605 1 -44.9652 1.12113 441.131 -44.9652 1.12113 441.131
2602 1 -46.7078 1.11708 442.999 -46.7078 1.11708 442.999
2889 1 -48.4503 1.11302 444.868 -48.4503 1.11302 444.868
2886 1 -50.1929 1.10898 446.736 -50.1929 1.10898 446.736
3170 1 -51.9354 1.10497 448.604 -51.9354 1.10497 448.604
2899 1 -42.1612 1.10855 447.297 -42.1612 1.10855 447.297
3184 1 -43.9036 1.10448 449.165 -43.9036 1.10448 449.165
2580 1 -59.5127 4.07017 441.44 -59.5127 4.07017 441.44
2577 1 -61.2551 4.06603 443.309 -61.2551 4.06603 443.309
2864 1 -62.9975 4.06187 445.177 -62.9975 4.06187 445.177
2862 1 -63.8686 1.84604 446.111 -63.8686 1.84604 446.111
2594 1 -51.4813 4.0703 442.002 -51.4813 4.0703 442.002
2590 1 -53.2239 4.06625 443.87 -53.2239 4.06625 443.87
2878 1 -54.9664 4.06222 445.739 -54.9664 4.06222 445.739
2875 1 -56.7089 4.05822 447.607 -56.7089 4.05822 447.607
3159 1 -58.4514 4.05422 449.475 -58.4514 4.05422 449.475
2611 1 -41.7069 4.07393 440.696 -41.7069 4.07393 440.696
2608 1 -43.4496 4.06991 442.564 -43.4496 4.06991 442.564
2894 1 -45.1922 4.06586 444.432 -45.1922 4.06586 444.432
2891 1 -46.9348 4.0618 446.3 -46.9348 4.0618 446.3
2888 1 -48.6773 4.05775 448.168 -48.6773 4.05775 448.168
2904 1 -38.9031 4.06143 446.862 -38.9031 4.06143 446.862
2621 1 -36.0617 3.33624 440.76 -36.0617 3.33624 440.76
2617 1 -38.4486 2.59922 440.261 -38.4486 2.59922 440.261
2614 1 -40.1914 2.59526 442.129 -40.1914 2.59526 442.129
2908 1 -36.5163 0.371127 447.361 -36.5163 0.371127 447.361
2619 1 -36.9331 1.12057 441.694 -36.9331 1.12057 441.694
2906 1 -37.3876 2.58283 448.295 -37.3876 2.58283 448.295
2905 1 -38.0318 1.84972 445.928 -38.0318 1.84972 445.928
2620 1 -36.2891 1.8537 444.06 -36.2891 1.8537 444.06
3190 1 -40.6456 4.05737 448.73 -40.6456 4.05737 448.73
2902 1 -39.7744 1.84568 447.796 -39.7744 1.84568 447.796
2903 1 -39.5473 3.32834 444.495 -39.5473 3.32834 444.495
2615 1 -39.32 0.383521 441.195 -39.32 0.383521 441.195
2909 1 -35.645 2.58686 446.427 -35.645 2.58686 446.427
14 1 -55.0356 4.18335 400.092 -55.0356 4.18335 400.092
7 1 -59.7491 2.67701 399.181 -59.7491 2.67701 399.181
25 1 -47.0028 4.17334 400.566 -47.0028 4.17334 400.566
38 1 -38.9654 4.13249 401.082 -38.9654 4.13249 401.082
23 1 -48.7484 4.15359 402.428 -48.7484 4.15359 402.428
287 1 -52.2333 4.1376 406.132 -52.2333 4.1376 406.132
878 1 -43.1439 4.12624 414.731 -43.1439 4.12624 414.731
579 1 -49.4353 4.13168 412.3 -49.4353 4.13168 412.3
585 1 -45.9456 4.13903 408.568 -45.9456 4.13903 408.568
290 1 -50.4931 4.14221 404.266 -50.4931 4.14221 404.266
11 1 -56.7722 4.13428 401.862 -56.7722 4.13428 401.862
595 1 -39.6558 4.13329 410.997 -39.6558 4.13329 410.997
1134 1 -62.6967 4.11824 417.336 -62.6967 4.11824 417.336
283 1 -53.9804 4.13731 407.998 -53.9804 4.13731 407.998
582 1 -47.6901 4.135 410.434 -47.6901 4.135 410.434
276 1 -58.5278 4.15028 403.712 -58.5278 4.15028 403.712
569 1 -55.7277 4.13693 409.862 -55.7277 4.13693 409.862
847 1 -60.9544 4.12283 415.467 -60.9544 4.12283 415.467
556 1 -63.7574 4.13459 409.297 -63.7574 4.13459 409.297
272 1 -60.2817 4.1527 405.555 -60.2817 4.1527 405.555
3 1 -61.5728 2.69188 400.86 -61.5728 2.69188 400.86
35 1 -40.7103 4.15214 402.954 -40.7103 4.15214 402.954
598 1 -37.9121 4.13724 409.129 -37.9121 4.13724 409.129
850 1 -59.2126 4.12783 413.598 -59.2126 4.12783 413.598