ITEM: TIMESTEP
0
ITEM: NUMBER OF ATOMS
4630
ITEM: BOX BOUNDS xy xz yz pp pp pp
-6.3614639155313483e+01 1.0663367100351348e+02 0.0000000000000000e+00
0.0000000000000000e+00 4.4274527100805940e+00 0.0000000000000000e+00
3.8000000000000000e+02 5.0000000000000000e+02 0.0000000000000000e+00
ITEM: ATOMS id type x y z xu yu zu
27 1 -45.8144 2.06837 399.606 -45.8144 2.06837 399.606
36 1 -40.1927 1.32718 399.664 -40.1927 1.32718 399.664
31 1 -43.4199 2.76426 400.045 -43.4199 2.76426 400.045
22 1 -49.0216 3.51652 400.012 -49.0216 3.51652 400.012
20 1 -49.9037 1.29436 400.856 -49.9037 1.29436 400.856
40 1 -37.8002 2.02436 400.105 -37.8002 2.02436 400.105
34 1 -41.052 3.52548 400.497 -41.052 3.52548 400.497
17 1 -52.2755 0.544032 400.41 -52.2755 0.544032 400.41
9 1 -57.8634 1.23564 400.32 -57.8634 1.23564 400.32
43 1 -35.4333 2.78634 400.559 -35.4333 2.78634 400.559
12 1 -55.5223 2.04505 400.802 -55.5223 2.04505 400.802
5 1 -60.2498 0.558637 399.858 -60.2498 0.558637 399.858
29 1 -44.2837 0.535532 400.898 -44.2837 0.535532 400.898
853 1 -57.2998 2.70406 414.96 -57.2998 2.70406 414.96
873 1 -46.0637 1.22856 415.089 -46.0637 1.22856 415.089
865 1 -50.1743 0.484905 416.462 -50.1743 0.484905 416.462
1174 1 -37.428 1.95192 418.026 -37.428 1.95192 418.026
883 1 -40.4446 0.489451 415.153 -40.4446 0.489451 415.153
863 1 -51.6831 1.96735 415.024 -51.6831 1.96735 415.024
315 1 -35.6592 1.27801 403.846 -35.6592 1.27801 403.846
307 1 -40.6339 2.74446 406.159 -40.6339 2.74446 406.159
1150 1 -51.9078 0.47588 418.336 -51.9078 0.47588 418.336
855 1 -55.7914 1.22192 416.398 -55.7914 1.22192 416.398
310 1 -38.8995 2.7544 404.29 -38.8995 2.7544 404.29
871 1 -46.9311 3.43821 416.026 -46.9311 3.43821 416.026
16 1 -53.1385 2.74238 401.264 -53.1385 2.74238 401.264
309 1 -39.1247 1.26197 407.594 -39.1247 1.26197 407.594
1156 1 -48.6655 3.4298 417.899 -48.6655 3.4298 417.899
867 1 -49.3072 2.70291 415.525 -49.3072 2.70291 415.525
1159 1 -46.2897 4.16519 418.399 -46.2897 4.16519 418.399
1168 1 -40.6709 3.42616 418.463 -40.6709 3.42616 418.463
1170 1 -39.8036 1.21655 417.526 -39.8036 1.21655 417.526
594 1 -39.9919 3.47142 408.532 -39.9919 3.47142 408.532
37 1 -39.5402 2.02727 401.94 -39.5402 2.02727 401.94
851 1 -58.166 0.48548 415.898 -58.166 0.48548 415.898
857 1 -54.9251 3.44045 415.46 -54.9251 3.44045 415.46
592 1 -40.859 1.25348 409.469 -40.859 1.25348 409.469
849 1 -59.0323 2.6944 416.835 -59.0323 2.6944 416.835
877 1 -43.6877 1.96378 415.589 -43.6877 1.96378 415.589
1143 1 -56.6577 3.43085 417.335 -56.6577 3.43085 417.335
1140 1 -58.3903 3.42131 419.21 -58.3903 3.42131 419.21
845 1 -61.4068 1.958 416.336 -61.4068 1.958 416.336
875 1 -44.5551 4.17344 416.526 -44.5551 4.17344 416.526
886 1 -38.7099 0.49779 413.279 -38.7099 0.49779 413.279
891 1 -35.4673 3.45117 412.842 -35.4673 3.45117 412.842
39 1 -38.0368 0.538301 403.34 -38.0368 0.538301 403.34
1177 1 -35.9198 0.469451 419.463 -35.9198 0.469451 419.463
1167 1 -41.5381 1.20832 419.4 -41.5381 1.20832 419.4
8 1 -58.7396 3.4906 401.277 -58.7396 3.4906 401.277
869 1 -47.7984 1.22035 416.962 -47.7984 1.22035 416.962
1136 1 -60.765 2.68494 418.711 -60.765 2.68494 418.711
1162 1 -44.781 2.68259 419.836 -44.781 2.68259 419.836
15 1 -54.0095 0.544415 402.249 -54.0095 0.544415 402.249
280 1 -55.7477 0.533382 404.099 -55.7477 0.533382 404.099
277 1 -57.4938 0.536415 405.962 -57.4938 0.536415 405.962
273 1 -59.2281 0.52691 407.832 -59.2281 0.52691 407.832
560 1 -60.9585 0.514769 409.709 -60.9585 0.514769 409.709
557 1 -62.6903 0.504296 411.585 -62.6903 0.504296 411.585
26 1 -46.0208 0.548692 402.779 -46.0208 0.548692 402.779
294 1 -47.7592 0.541704 404.661 -47.7592 0.541704 404.661
291 1 -49.4944 0.528515 406.532 -49.4944 0.528515 406.532
576 1 -51.2294 0.519004 408.405 -51.2294 0.519004 408.405
573 1 -52.966 0.51229 410.276 -52.966 0.51229 410.276
570 1 -54.7007 0.504518 412.148 -54.7007 0.504518 412.148
854 1 -56.4335 0.495178 414.022 -56.4335 0.495178 414.022
305 1 -41.4999 0.526822 407.095 -41.4999 0.526822 407.095
589 1 -43.2347 0.518262 408.97 -43.2347 0.518262 408.97
586 1 -44.9695 0.50968 410.843 -44.9695 0.50968 410.843
872 1 -46.7047 0.501385 412.716 -46.7047 0.501385 412.716
599 1 -36.9755 0.506277 411.405 -36.9755 0.506277 411.405
1132 1 -63.1396 1.94868 418.211 -63.1396 1.94868 418.211
4 1 -60.5222 3.5151 403.07 -60.5222 3.5151 403.07
268 1 -62.2437 3.48981 404.949 -62.2437 3.48981 404.949
1152 1 -51.0411 2.69418 417.399 -51.0411 2.69418 417.399
19 1 -50.7815 3.48599 401.783 -50.7815 3.48599 401.783
286 1 -52.5065 3.48077 403.645 -52.5065 3.48077 403.645
282 1 -54.2411 3.47902 405.527 -54.2411 3.47902 405.527
279 1 -55.9829 3.47734 407.398 -55.9829 3.47734 407.398
565 1 -57.7184 3.47034 409.27 -57.7184 3.47034 409.27
563 1 -59.4502 3.45989 411.146 -59.4502 3.45989 411.146
846 1 -61.1823 3.4497 413.023 -61.1823 3.4497 413.023
32 1 -42.7799 3.49673 402.366 -42.7799 3.49673 402.366
300 1 -44.517 3.49321 404.23 -44.517 3.49321 404.23
297 1 -46.2526 3.48416 406.098 -46.2526 3.48416 406.098
293 1 -47.9865 3.47476 407.97 -47.9865 3.47476 407.97
578 1 -49.7215 3.46572 409.843 -49.7215 3.46572 409.843
575 1 -51.4574 3.45795 411.714 -51.4574 3.45795 411.714
860 1 -53.192 3.4497 413.586 -53.192 3.4497 413.586
591 1 -41.7265 3.46289 410.406 -41.7265 3.46289 410.406
588 1 -43.4612 3.45452 412.279 -43.4612 3.45452 412.279
874 1 -45.1962 3.44632 414.153 -45.1962 3.44632 414.153
10 1 -57.2496 2.00311 402.67 -57.2496 2.00311 402.67
274 1 -59.0076 2.02324 404.517 -59.0076 2.02324 404.517
271 1 -60.7372 2.00979 406.391 -60.7372 2.00979 406.391
558 1 -62.4661 1.99632 408.27 -62.4661 1.99632 408.27
24 1 -47.5482 2.02367 401.373 -47.5482 2.02367 401.373
21 1 -49.274 2.02085 403.221 -49.274 2.02085 403.221
288 1 -51.0005 2.0087 405.097 -51.0005 2.0087 405.097
285 1 -52.7361 1.9996 406.97 -52.7361 1.9996 406.97
571 1 -54.4746 1.99442 408.838 -54.4746 1.99442 408.838
568 1 -56.2096 1.98716 410.71 -56.2096 1.98716 410.71
852 1 -57.942 1.97748 412.585 -57.942 1.97748 412.585
848 1 -59.6742 1.96759 414.46 -59.6742 1.96759 414.46
306 1 -41.2768 2.01675 403.785 -41.2768 2.01675 403.785
302 1 -43.0091 2.00873 405.657 -43.0091 2.00873 405.657
299 1 -44.7432 2.001 407.532 -44.7432 2.001 407.532
583 1 -46.4779 1.99231 409.406 -46.4779 1.99231 409.406
581 1 -48.2131 1.98372 411.279 -48.2131 1.98372 411.279
866 1 -49.9486 1.97573 413.152 -49.9486 1.97573 413.152
880 1 -41.9528 1.97198 413.716 -41.9528 1.97198 413.716
312 1 -37.3913 1.27017 405.718 -37.3913 1.27017 405.718
2 1 -62.0438 0.57404 401.635 -62.0438 0.57404 401.635
13 1 -54.8715 2.74982 403.149 -54.8715 2.74982 403.149
278 1 -56.619 2.74834 405.026 -56.619 2.74834 405.026
275 1 -58.3617 2.7463 406.893 -58.3617 2.7463 406.893
562 1 -60.0928 2.73437 408.77 -60.0928 2.73437 408.77
559 1 -61.8241 2.72308 410.647 -61.8241 2.72308 410.647
1166 1 -42.4053 3.41792 420.337 -42.4053 3.41792 420.337
889 1 -36.3345 1.23322 413.779 -36.3345 1.23322 413.779
28 1 -45.1572 2.76639 401.882 -45.1572 2.76639 401.882
296 1 -46.8957 2.75759 403.725 -46.8957 2.75759 403.725
292 1 -48.6279 2.74881 405.596 -48.6279 2.74881 405.596
289 1 -50.3612 2.73754 407.47 -50.3612 2.73754 407.47
574 1 -52.0976 2.72954 409.341 -52.0976 2.72954 409.341
572 1 -53.8337 2.72246 411.212 -53.8337 2.72246 411.212
856 1 -55.5673 2.71372 413.085 -55.5673 2.71372 413.085
303 1 -42.3678 2.7359 408.032 -42.3678 2.7359 408.032
587 1 -44.1022 2.7276 409.906 -44.1022 2.7276 409.906
584 1 -45.8371 2.7192 411.78 -45.8371 2.7192 411.78
870 1 -47.5723 2.71107 413.652 -47.5723 2.71107 413.652
6 1 -59.6402 1.29766 402.149 -59.6402 1.29766 402.149
270 1 -61.3826 1.28774 404.005 -61.3826 1.28774 404.005
267 1 -63.1067 1.26929 405.892 -63.1067 1.26929 405.892
890 1 -35.6935 1.96025 416.152 -35.6935 1.96025 416.152
18 1 -51.6346 1.27247 402.73 -51.6346 1.27247 402.73
284 1 -53.3711 1.26929 404.599 -53.3711 1.26929 404.599
281 1 -55.1129 1.26499 406.466 -55.1129 1.26499 406.466
567 1 -56.8519 1.2612 408.335 -56.8519 1.2612 408.335
564 1 -58.5845 1.25151 410.209 -58.5845 1.25151 410.209
561 1 -60.3162 1.241 412.085 -60.3162 1.241 412.085
844 1 -62.0486 1.23112 413.961 -62.0486 1.23112 413.961
33 1 -41.9323 1.28478 401.427 -41.9323 1.28478 401.427
30 1 -43.6542 1.277 403.279 -43.6542 1.277 403.279
298 1 -45.3849 1.27464 405.158 -45.3849 1.27464 405.158
295 1 -47.1191 1.26602 407.034 -47.1191 1.26602 407.034
580 1 -48.8538 1.25615 408.906 -48.8538 1.25615 408.906
577 1 -50.5895 1.24793 410.778 -50.5895 1.24793 410.778
862 1 -52.3249 1.2402 412.65 -52.3249 1.2402 412.65
590 1 -42.5937 1.24502 411.343 -42.5937 1.24502 411.343
876 1 -44.3286 1.23668 413.216 -44.3286 1.23668 413.216
1163 1 -43.9139 0.473032 418.9 -43.9139 0.473032 418.9
1153 1 -50.3991 3.4209 419.773 -50.3991 3.4209 419.773
311 1 -38.2571 3.48057 406.658 -38.2571 3.48057 406.658
42 1 -36.314 0.545445 401.488 -36.314 0.545445 401.488
1135 1 -61.6314 0.466544 419.648 -61.6314 0.466544 419.648
1171 1 -39.1625 1.94366 419.9 -39.1625 1.94366 419.9
1139 1 -59.2567 1.20286 420.148 -59.2567 1.20286 420.148
601 1 -36.1084 2.72423 410.468 -36.1084 2.72423 410.468
313 1 -36.521 3.49007 404.783 -36.521 3.49007 404.783
858 1 -54.0586 1.23142 414.523 -54.0586 1.23142 414.523
868 1 -48.4398 0.493325 414.589 -48.4398 0.493325 414.589
1147 1 -54.2829 4.16721 417.835 -54.2829 4.16721 417.835
843 1 -62.9149 3.4401 414.898 -62.9149 3.4401 414.898
593 1 -40.2182 1.98033 411.842 -40.2182 1.98033 411.842
308 1 -39.7662 0.535321 405.218 -39.7662 0.535321 405.218
861 1 -52.5499 4.17659 415.961 -52.5499 4.17659 415.961
1158 1 -47.1567 1.94722 419.336 -47.1567 1.94722 419.336
884 1 -39.5772 2.70733 414.216 -39.5772 2.70733 414.216
881 1 -41.3119 2.69906 416.089 -41.3119 2.69906 416.089
885 1 -38.9363 3.4344 416.589 -38.9363 3.4344 416.589
859 1 -53.4164 1.95821 416.898 -53.4164 1.95821 416.898
596 1 -38.4838 1.98877 409.968 -38.4838 1.98877 409.968
879 1 -42.1793 0.481235 417.026 -42.1793 0.481235 417.026
1172 1 -38.2953 4.16151 418.963 -38.2953 4.16151 418.963
1154 1 -49.5324 1.21168 418.836 -49.5324 1.21168 418.836
887 1 -38.069 1.22483 415.653 -38.069 1.22483 415.653
597 1 -37.8427 2.71572 412.342 -37.8427 2.71572 412.342
1161 1 -45.4224 1.95562 417.463 -45.4224 1.95562 417.463
1138 1 -59.8986 0.47592 417.773 -59.8986 0.47592 417.773
1149 1 -52.7743 2.68494 419.273 -52.7743 2.68494 419.273
41 1 -37.1622 2.75763 402.427 -37.1622 2.75763 402.427
888 1 -37.2017 3.44273 414.716 -37.2017 3.44273 414.716
1165 1 -43.0466 2.69087 417.963 -43.0466 2.69087 417.963
1141 1 -57.524 1.21233 418.273 -57.524 1.21233 418.273
1145 1 -55.1493 1.94872 418.773 -55.1493 1.94872 418.773
600 1 -36.7498 1.99726 408.094 -36.7498 1.99726 408.094
1148 1 -53.6408 0.466513 420.21 -53.6408 0.466513 420.21
882 1 -41.0855 4.18985 412.779 -41.0855 4.18985 412.779
1157 1 -48.0237 4.15659 420.273 -48.0237 4.15659 420.273
1144 1 -56.0156 4.15769 419.71 -56.0156 4.15769 419.71
602 1 -35.2412 0.514912 409.531 -35.2412 0.514912 409.531
1131 1 -63.3643 0.457313 421.524 -63.3643 0.457313 421.524
1755 1 -35.7306 2.64243 428.459 -35.7306 2.64243 428.459
1460 1 -40.2556 2.66238 424.147 -40.2556 2.66238 424.147
2308 1 -50.0132 3.33579 437.769 -50.0132 3.33579 437.769
2316 1 -45.0392 1.87161 435.456 -45.0392 1.87161 435.456
2312 1 -47.6385 4.07174 438.268 -47.6385 4.07174 438.268
1464 1 -37.8802 3.39782 424.648 -37.8802 3.39782 424.648
1461 1 -39.3885 0.452854 423.211 -39.3885 0.452854 423.211
2039 1 -38.5564 3.35212 434.581 -38.5564 3.35212 434.581
2613 1 -40.5143 1.85192 439.767 -40.5143 1.85192 439.767
1467 1 -35.5048 4.13328 425.148 -35.5048 4.13328 425.148
2603 1 -46.1301 2.58938 439.706 -46.1301 2.58938 439.706
1443 1 -49.7571 4.1476 422.147 -49.7571 4.1476 422.147
1748 1 -39.6142 3.38936 426.522 -39.6142 3.38936 426.522
2023 1 -47.414 1.13572 434.957 -47.414 1.13572 434.957
2310 1 -48.5049 1.85346 439.206 -48.5049 1.85346 439.206
1151 1 -51.2657 1.20258 420.71 -51.2657 1.20258 420.71
2303 1 -53.2543 0.381484 438.207 -53.2543 0.381484 438.207
2299 1 -55.6291 4.07286 437.707 -55.6291 4.07286 437.707
2033 1 -41.7978 0.398194 435.019 -41.7978 0.398194 435.019
1433 1 -55.3736 0.457072 422.085 -55.3736 0.457072 422.085
1430 1 -57.1064 0.447667 423.96 -57.1064 0.447667 423.96
1426 1 -58.8392 0.438325 425.835 -58.8392 0.438325 425.835
1713 1 -60.5721 0.429042 427.71 -60.5721 0.429042 427.71
1710 1 -62.3049 0.419813 429.585 -62.3049 0.419813 429.585
2330 1 -36.4065 2.59668 438.393 -36.4065 2.59668 438.393
1160 1 -45.6481 0.464622 420.773 -45.6481 0.464622 420.773
1447 1 -47.3818 0.455883 422.647 -47.3818 0.455883 422.647
1444 1 -49.1151 0.446868 424.522 -49.1151 0.446868 424.522
1730 1 -50.8482 0.437694 426.396 -50.8482 0.437694 426.396
1727 1 -52.5812 0.428452 428.271 -52.5812 0.428452 428.271
1724 1 -54.314 0.419192 430.146 -54.314 0.419192 430.146
2008 1 -56.0468 0.409936 432.021 -56.0468 0.409936 432.021
2006 1 -57.7796 0.400694 433.896 -57.7796 0.400694 433.896
1458 1 -41.1225 0.44441 425.084 -41.1225 0.44441 425.084
1743 1 -42.8563 0.435774 426.959 -42.8563 0.435774 426.959
1740 1 -44.5897 0.426946 428.833 -44.5897 0.426946 428.833
2026 1 -46.3229 0.417974 430.707 -46.3229 0.417974 430.707
2022 1 -48.0559 0.408907 432.582 -48.0559 0.408907 432.582
2019 1 -49.7888 0.399786 434.457 -49.7888 0.399786 434.457
2309 1 -49.1469 1.12662 436.831 -49.1469 1.12662 436.831
1137 1 -60.1231 3.4119 421.085 -60.1231 3.4119 421.085
1421 1 -61.856 3.4026 422.961 -61.856 3.4026 422.961
1439 1 -52.1322 3.41167 421.647 -52.1322 3.41167 421.647
1435 1 -53.8652 3.40231 423.522 -53.8652 3.40231 423.522
1432 1 -55.598 3.39295 425.397 -55.598 3.39295 425.397
1719 1 -57.3309 3.38361 427.272 -57.3309 3.38361 427.272
1716 1 -59.0637 3.37432 429.147 -59.0637 3.37432 429.147
2001 1 -60.7964 3.36507 431.022 -60.7964 3.36507 431.022
1998 1 -62.5292 3.35586 432.897 -62.5292 3.35586 432.897
2323 1 -40.2896 3.34325 436.456 -40.2896 3.34325 436.456
1453 1 -44.1395 3.4095 422.21 -44.1395 3.4095 422.21
1450 1 -45.8732 3.40081 424.084 -45.8732 3.40081 424.084
1446 1 -47.6066 3.39187 425.959 -47.6066 3.39187 425.959
1732 1 -49.3398 3.38278 427.833 -49.3398 3.38278 427.833
1729 1 -51.0727 3.3736 429.708 -51.0727 3.3736 429.708
2014 1 -52.8056 3.36439 431.583 -52.8056 3.36439 431.583
2011 1 -54.5384 3.35516 433.458 -54.5384 3.35516 433.458
1745 1 -41.3479 3.38074 428.396 -41.3479 3.38074 428.396
1742 1 -43.0813 3.37194 430.27 -43.0813 3.37194 430.27
2028 1 -44.8145 3.36301 432.144 -44.8145 3.36301 432.144
2025 1 -46.5476 3.35399 434.019 -46.5476 3.35399 434.019
1427 1 -58.6148 1.9298 422.523 -58.6148 1.9298 422.523
1424 1 -60.3476 1.92047 424.398 -60.3476 1.92047 424.398
1711 1 -62.0805 1.91121 426.273 -62.0805 1.91121 426.273
2322 1 -41.1561 1.12505 437.393 -41.1561 1.12505 437.393
1750 1 -38.1058 1.90689 427.959 -38.1058 1.90689 427.959
1155 1 -48.8904 1.93841 421.21 -48.8904 1.93841 421.21
1441 1 -50.6237 1.92929 423.085 -50.6237 1.92929 423.085
1438 1 -52.3567 1.92003 424.959 -52.3567 1.92003 424.959
1725 1 -54.0896 1.91072 426.834 -54.0896 1.91072 426.834
1722 1 -55.8224 1.90142 428.709 -55.8224 1.90142 428.709
1718 1 -57.5552 1.89214 430.584 -57.5552 1.89214 430.584
2003 1 -59.288 1.88289 432.459 -59.288 1.88289 432.459
2000 1 -61.0207 1.87366 434.334 -61.0207 1.87366 434.334
1459 1 -40.8969 1.93537 421.774 -40.8969 1.93537 421.774
1455 1 -42.631 1.92694 423.647 -42.631 1.92694 423.647
1452 1 -44.3647 1.91828 425.521 -44.3647 1.91828 425.521
1737 1 -46.0981 1.90941 427.396 -46.0981 1.90941 427.396
1735 1 -47.8313 1.90038 429.27 -47.8313 1.90038 429.27
2020 1 -49.5643 1.89126 431.145 -49.5643 1.89126 431.145
2017 1 -51.2972 1.8821 433.02 -51.2972 1.8821 433.02
2034 1 -41.573 1.8895 431.707 -41.573 1.8895 431.707
2031 1 -43.3062 1.8806 433.582 -43.3062 1.8806 433.582
2029 1 -44.1727 4.08984 434.519 -44.1727 4.08984 434.519
1146 1 -54.5072 2.67552 421.147 -54.5072 2.67552 421.147
1431 1 -56.24 2.66609 423.022 -56.24 2.66609 423.022
1428 1 -57.9728 2.65671 424.897 -57.9728 2.65671 424.897
1715 1 -59.7057 2.6474 426.772 -59.7057 2.6474 426.772
1712 1 -61.4385 2.63815 428.647 -61.4385 2.63815 428.647
1708 1 -63.1713 2.62894 430.522 -63.1713 2.62894 430.522
1747 1 -39.8395 1.89827 429.833 -39.8395 1.89827 429.833
1449 1 -46.515 2.67402 421.71 -46.515 2.67402 421.71
1445 1 -48.2485 2.66513 423.584 -48.2485 2.66513 423.584
1442 1 -49.9817 2.65602 425.459 -49.9817 2.65602 425.459
1728 1 -51.7147 2.6468 427.334 -51.7147 2.6468 427.334
1726 1 -53.4476 2.63755 429.208 -53.4476 2.63755 429.208
2010 1 -55.1804 2.62829 431.083 -55.1804 2.62829 431.083
2007 1 -56.9132 2.61904 432.958 -56.9132 2.61904 432.958
1456 1 -41.9895 2.65384 426.021 -41.9895 2.65384 426.021
1741 1 -43.723 2.64511 427.896 -43.723 2.64511 427.896
1738 1 -45.4563 2.6362 429.77 -45.4563 2.6362 429.77
2024 1 -47.1894 2.62718 431.645 -47.1894 2.62718 431.645
2021 1 -48.9224 2.61808 433.52 -48.9224 2.61808 433.52
2035 1 -40.9313 2.61637 434.081 -40.9313 2.61637 434.081
1754 1 -36.3719 1.91536 426.085 -36.3719 1.91536 426.085
1423 1 -60.9895 1.19351 422.023 -60.9895 1.19351 422.023
1420 1 -62.7224 1.18427 423.898 -62.7224 1.18427 423.898
2044 1 -35.3147 1.87849 434.144 -35.3147 1.87849 434.144
1437 1 -52.9987 1.19327 422.585 -52.9987 1.19327 422.585
1434 1 -54.7316 1.1839 424.459 -54.7316 1.1839 424.459
1721 1 -56.4644 1.17455 426.334 -56.4644 1.17455 426.334
1717 1 -58.1973 1.16524 428.209 -58.1973 1.16524 428.209
1714 1 -59.9301 1.15597 430.084 -59.9301 1.15597 430.084
1999 1 -61.6628 1.14673 431.959 -61.6628 1.14673 431.959
1997 1 -63.3956 1.13754 433.834 -63.3956 1.13754 433.834
1164 1 -43.2725 1.20001 421.273 -43.2725 1.20001 421.273
1451 1 -45.0064 1.19146 423.147 -45.0064 1.19146 423.147
1448 1 -46.74 1.18264 425.022 -46.74 1.18264 425.022
1734 1 -48.4732 1.17361 426.896 -48.4732 1.17361 426.896
1731 1 -50.2063 1.16447 428.771 -50.2063 1.16447 428.771
2016 1 -51.9392 1.15527 430.645 -51.9392 1.15527 430.645
2012 1 -53.672 1.14605 432.52 -53.672 1.14605 432.52
2009 1 -55.4048 1.13683 434.395 -55.4048 1.13683 434.395
1746 1 -40.4811 1.17135 427.459 -40.4811 1.17135 427.459
1744 1 -42.2146 1.16263 429.333 -42.2146 1.16263 429.333
2030 1 -43.9479 1.15377 431.207 -43.9479 1.15377 431.207
2027 1 -45.6811 1.14478 433.082 -45.6811 1.14478 433.082
2325 1 -39.423 1.13397 435.518 -39.423 1.13397 435.518
1749 1 -38.9727 4.11633 428.896 -38.9727 4.11633 428.896
1425 1 -59.4812 4.13885 423.46 -59.4812 4.13885 423.46
1736 1 -46.9648 4.11864 428.333 -46.9648 4.11864 428.333
1142 1 -56.882 1.93922 420.648 -56.882 1.93922 420.648
1720 1 -56.6888 4.1105 429.646 -56.6888 4.1105 429.646
2005 1 -58.4216 4.10124 431.521 -58.4216 4.10124 431.521
2002 1 -60.1544 4.09199 433.396 -60.1544 4.09199 433.396
1169 1 -40.0297 4.15325 420.837 -40.0297 4.15325 420.837
1723 1 -54.956 4.1198 427.771 -54.956 4.1198 427.771
1440 1 -51.4902 4.1384 424.022 -51.4902 4.1384 424.022
1733 1 -48.6978 4.10956 430.208 -48.6978 4.10956 430.208
2018 1 -50.4308 4.10041 432.083 -50.4308 4.10041 432.083
2015 1 -52.1636 4.09123 433.957 -52.1636 4.09123 433.957
2036 1 -40.7063 4.10763 430.77 -40.7063 4.10763 430.77
2032 1 -42.4396 4.09879 432.644 -42.4396 4.09879 432.644
2326 1 -38.7813 1.86087 437.893 -38.7813 1.86087 437.893
1752 1 -37.2389 4.12487 427.022 -37.2389 4.12487 427.022
1457 1 -41.764 4.14491 422.71 -41.764 4.14491 422.71
2043 1 -35.9562 1.15148 431.77 -35.9562 1.15148 431.77
2286 1 -62.7534 1.86446 436.209 -62.7534 1.86446 436.209
2319 1 -42.889 1.11606 439.268 -42.889 1.11606 439.268
1436 1 -53.2232 4.1291 425.897 -53.2232 4.1291 425.897
1422 1 -61.214 4.12956 425.335 -61.214 4.12956 425.335
1173 1 -37.6542 0.461168 421.337 -37.6542 0.461168 421.337
2293 1 -58.8701 1.11841 438.145 -58.8701 1.11841 438.145
2289 1 -61.2449 0.382264 437.646 -61.2449 0.382264 437.646
2295 1 -57.3617 4.06369 439.582 -57.3617 4.06369 439.582
1465 1 -37.0131 1.18827 423.711 -37.0131 1.18827 423.711
2315 1 -45.2637 0.380186 438.768 -45.2637 0.380186 438.768
2331 1 -36.1814 4.08786 435.081 -36.1814 4.08786 435.081
2297 1 -56.4954 1.85455 438.645 -56.4954 1.85455 438.645
2324 1 -39.6478 4.07013 438.83 -39.6478 4.07013 438.83
2306 1 -50.8796 1.1175 438.706 -50.8796 1.1175 438.706
2285 1 -62.9775 0.373075 439.521 -62.9775 0.373075 439.521
1462 1 -38.7472 1.17988 425.585 -38.7472 1.17988 425.585
1751 1 -37.4644 2.63389 430.333 -37.4644 2.63389 430.333
2329 1 -37.0481 1.86974 436.018 -37.0481 1.86974 436.018
2042 1 -36.8229 3.36087 432.707 -36.8229 3.36087 432.707
2041 1 -37.6897 1.14279 433.644 -37.6897 1.14279 433.644
2593 1 -51.7459 3.32667 439.644 -51.7459 3.32667 439.644
2328 1 -37.2731 0.378511 439.33 -37.2731 0.378511 439.33
2301 1 -54.1206 2.59064 439.144 -54.1206 2.59064 439.144
1466 1 -36.1459 3.40616 422.774 -36.1459 3.40616 422.774
2298 1 -56.2711 3.34594 435.333 -56.2711 3.34594 435.333
2321 1 -42.0226 3.33429 438.33 -42.0226 3.33429 438.33
2313 1 -46.7721 1.86255 437.331 -46.7721 1.86255 437.331
2294 1 -58.0038 3.33674 437.208 -58.0038 3.33674 437.208
2304 1 -52.388 2.59979 437.269 -52.388 2.59979 437.269
2300 1 -54.7627 1.86373 436.77 -54.7627 1.86373 436.77
2290 1 -60.3786 2.60059 436.708 -60.3786 2.60059 436.708
2318 1 -43.5309 0.389221 436.893 -43.5309 0.389221 436.893
2327 1 -37.9147 4.07904 436.956 -37.9147 4.07904 436.956
2004 1 -58.6459 2.60981 434.833 -58.6459 2.60981 434.833
2013 1 -53.03 1.87291 434.895 -53.03 1.87291 434.895
2288 1 -61.8871 4.08278 435.271 -61.8871 4.08278 435.271
2037 1 -40.0646 0.407074 433.144 -40.0646 0.407074 433.144
1739 1 -45.2315 4.12759 426.459 -45.2315 4.12759 426.459
1753 1 -36.5975 0.42445 429.396 -36.5975 0.42445 429.396
2307 1 -50.6552 2.60894 435.394 -50.6552 2.60894 435.394
2314 1 -45.9057 4.08081 436.394 -45.9057 4.08081 436.394
2040 1 -38.3312 0.415832 431.27 -38.3312 0.415832 431.27
2320 1 -42.6644 2.60744 435.956 -42.6644 2.60744 435.956
2292 1 -59.5123 0.39147 435.771 -59.5123 0.39147 435.771
2311 1 -48.2804 3.3449 435.894 -48.2804 3.3449 435.894
2302 1 -53.8964 4.08205 435.832 -53.8964 4.08205 435.832
2296 1 -57.1375 1.12761 436.27 -57.1375 1.12761 436.27
1463 1 -38.5214 2.67075 422.274 -38.5214 2.67075 422.274
2287 1 -62.1112 2.59139 438.583 -62.1112 2.59139 438.583
2291 1 -59.7364 3.32754 439.083 -59.7364 3.32754 439.083
2317 1 -44.3973 2.59844 437.831 -44.3973 2.59844 437.831
2038 1 -39.1979 2.6252 432.207 -39.1979 2.6252 432.207
2305 1 -51.5216 0.390638 436.332 -51.5216 0.390638 436.332
2332 1 -35.5399 0.387382 437.456 -35.5399 0.387382 437.456
1709 1 -62.9469 4.12034 427.21 -62.9469 4.12034 427.21
1468 1 -35.2788 1.19658 421.837 -35.2788 1.19658 421.837
1454 1 -43.4979 4.13637 424.584 -43.4979 4.13637 424.584
1429 1 -57.7484 4.14822 421.585 -57.7484 4.14822 421.585
1133 1 -62.4978 2.67564 420.586 -62.4978 2.67564 420.586
1175 1 -36.787 2.67903 420.4 -36.787 2.67903 420.4
2616 1 -38.3642 1.09643 443.579 -38.3642 1.09643 443.579
2901 1 -40.0969 1.08738 445.454 -40.0969 1.08738 445.454
2907 1 -36.856 4.04155 445.016 -36.856 4.04155 445.016
3194 1 -37.9466 0.331886 449.266 -37.9466 0.331886 449.266
2587 1 -54.9869 0.372338 440.082 -54.9869 0.372338 440.082
2597 1 -49.3712 4.06264 440.143 -49.3712 4.06264 440.143
2584 1 -56.7195 0.363207 441.957 -56.7195 0.363207 441.957
2581 1 -58.452 0.354092 443.832 -58.452 0.354092 443.832
2868 1 -60.1845 0.344987 445.707 -60.1845 0.344987 445.707
2865 1 -61.9169 0.335876 447.582 -61.9169 0.335876 447.582
2601 1 -46.9965 0.371114 440.643 -46.9965 0.371114 440.643
2598 1 -48.7291 0.36203 442.518 -48.7291 0.36203 442.518
2885 1 -50.4617 0.352959 444.393 -50.4617 0.352959 444.393
2882 1 -52.1942 0.343923 446.268 -52.1942 0.343923 446.268
2879 1 -53.9267 0.334938 448.143 -53.9267 0.334938 448.143
2612 1 -40.7388 0.360534 443.079 -40.7388 0.360534 443.079
2898 1 -42.4715 0.351474 444.954 -42.4715 0.351474 444.954
2895 1 -44.204 0.342397 446.829 -44.204 0.342397 446.829
3180 1 -45.9364 0.333333 448.704 -45.9364 0.333333 448.704
2576 1 -61.469 3.31836 440.958 -61.469 3.31836 440.958
2574 1 -63.2015 3.30919 442.833 -63.2015 3.30919 442.833
2589 1 -53.4785 3.31755 441.519 -53.4785 3.31755 441.519
2586 1 -55.2111 3.30846 443.394 -55.2111 3.30846 443.394
2874 1 -56.9436 3.2994 445.269 -56.9436 3.2994 445.269
2871 1 -58.676 3.29036 447.144 -58.676 3.29036 447.144
3155 1 -60.4084 3.28132 449.019 -60.4084 3.28132 449.019
2607 1 -43.7554 3.32527 440.205 -43.7554 3.32527 440.205
2604 1 -45.4881 3.3162 442.08 -45.4881 3.3162 442.08
2600 1 -47.2208 3.30713 443.955 -47.2208 3.30713 443.955
2887 1 -48.9533 3.29806 445.83 -48.9533 3.29806 445.83
2884 1 -50.6858 3.28903 447.705 -50.6858 3.28903 447.705
3168 1 -52.4182 3.28005 449.58 -52.4182 3.28005 449.58
2900 1 -40.9632 3.29657 446.391 -40.9632 3.29657 446.391
2897 1 -42.6956 3.28749 448.266 -42.6956 3.28749 448.266
2582 1 -58.228 1.84538 440.52 -58.228 1.84538 440.52
2579 1 -59.9605 1.83622 442.395 -59.9605 1.83622 442.395
2866 1 -61.693 1.82707 444.27 -61.693 1.82707 444.27
2578 1 -60.6027 1.10923 440.02 -60.6027 1.10923 440.02
2595 1 -50.2375 1.84436 441.081 -50.2375 1.84436 441.081
2592 1 -51.9701 1.83528 442.956 -51.9701 1.83528 442.956
2880 1 -53.7026 1.82622 444.831 -53.7026 1.82622 444.831
2877 1 -55.4351 1.8172 446.706 -55.4351 1.8172 446.706
2873 1 -57.1676 1.80823 448.581 -57.1676 1.80823 448.581
2609 1 -42.2471 1.8429 441.642 -42.2471 1.8429 441.642
2606 1 -43.9798 1.83384 443.517 -43.9798 1.83384 443.517
2892 1 -45.7124 1.82476 445.392 -45.7124 1.82476 445.392
2890 1 -47.4448 1.81569 447.267 -47.4448 1.81569 447.267
3174 1 -49.1773 1.80667 449.142 -49.1773 1.80667 449.142
2618 1 -37.4978 3.31466 442.642 -37.4978 3.31466 442.642
2585 1 -55.8532 2.5815 441.019 -55.8532 2.5815 441.019
2583 1 -57.5858 2.57237 442.894 -57.5858 2.57237 442.894
2870 1 -59.3183 2.56327 444.769 -59.3183 2.56327 444.769
2867 1 -61.0507 2.55416 446.644 -61.0507 2.55416 446.644
2863 1 -62.783 2.54504 448.519 -62.783 2.54504 448.519
2599 1 -47.8628 2.5803 441.58 -47.8628 2.5803 441.58
2596 1 -49.5954 2.57122 443.455 -49.5954 2.57122 443.455
2883 1 -51.328 2.56216 445.33 -51.328 2.56216 445.33
2881 1 -53.0605 2.55315 447.206 -53.0605 2.55315 447.206
3164 1 -54.7929 2.54419 449.081 -54.7929 2.54419 449.081
2610 1 -41.6052 2.56973 444.017 -41.6052 2.56973 444.017
2896 1 -43.3377 2.56066 445.892 -43.3377 2.56066 445.892
2893 1 -45.0702 2.55159 447.767 -45.0702 2.55159 447.767
3178 1 -46.8026 2.54254 449.642 -46.8026 2.54254 449.642
2575 1 -62.3353 1.10005 441.895 -62.3353 1.10005 441.895
2591 1 -52.6122 1.10838 440.581 -52.6122 1.10838 440.581
2588 1 -54.3448 1.09928 442.456 -54.3448 1.09928 442.456
2876 1 -56.0773 1.0902 444.331 -56.0773 1.0902 444.331
2872 1 -57.8098 1.08115 446.206 -57.8098 1.08115 446.206
2869 1 -59.5422 1.07211 448.081 -59.5422 1.07211 448.081
2605 1 -44.6218 1.10701 441.143 -44.6218 1.10701 441.143
2602 1 -46.3545 1.09794 443.017 -46.3545 1.09794 443.017
2889 1 -48.087 1.08886 444.892 -48.087 1.08886 444.892
2886 1 -49.8195 1.07981 446.767 -49.8195 1.07981 446.767
3170 1 -51.552 1.07081 448.643 -51.552 1.07081 448.643
2899 1 -41.8294 1.07831 447.329 -41.8294 1.07831 447.329
3184 1 -43.5618 1.06923 449.204 -43.5618 1.06923 449.204
2580 1 -59.0942 4.05453 441.457 -59.0942 4.05453 441.457
2577 1 -60.8267 4.04537 443.332 -60.8267 4.04537 443.332
2864 1 -62.5592 4.03622 445.207 -62.5592 4.03622 445.207
2862 1 -63.4254 1.81792 446.145 -63.4254 1.81792 446.145
2594 1 -51.1038 4.05354 442.018 -51.1038 4.05354 442.018
2590 1 -52.8364 4.04447 443.893 -52.8364 4.04447 443.893
2878 1 -54.5689 4.03543 445.768 -54.5689 4.03543 445.768
2875 1 -56.3014 4.02644 447.644 -56.3014 4.02644 447.644
3159 1 -58.0338 4.01748 449.519 -58.0338 4.01748 449.519
2611 1 -41.3807 4.06114 440.705 -41.3807 4.06114 440.705
2608 1 -43.1135 4.0521 442.58 -43.1135 4.0521 442.58
2894 1 -44.8461 4.04303 444.455 -44.8461 4.04303 444.455
2891 1 -46.5786 4.03395 446.329 -46.5786 4.03395 446.329
2888 1 -48.3111 4.0249 448.204 -48.3111 4.0249 448.204
2904 1 -38.5886 4.03249 446.891 -38.5886 4.03249 446.891
2621 1 -35.7649 3.32363 440.767 -35.7649 3.32363 440.767
2617 1 -38.1396 2.58777 440.267 -38.1396 2.58777 440.267
2614 1 -39.8725 2.57878 442.142 -39.8725 2.57878 442.142
2908 1 -36.2141 0.340977 447.391 -36.2141 0.340977 447.391
2619 1 -36.6314 1.10543 441.704 -36.6314 1.10543 441.704
2906 1 -37.0804 2.55016 448.328 -37.0804 2.55016 448.328
2905 1 -37.7223 1.8233 445.954 -37.7223 1.8233 445.954
2620 1 -35.9896 1.83234 444.079 -35.9896 1.83234 444.079
3190 1 -40.3211 4.02341 448.766 -40.3211 4.02341 448.766
2902 1 -39.4549 1.81422 447.828 -39.4549 1.81422 447.828
2903 1 -39.2306 3.30564 444.516 -39.2306 3.30564 444.516
2615 1 -39.006 0.369554 441.205 -39.006 0.369554 441.205
2909 1 -35.3478 2.55924 446.453 -35.3478 2.55924 446.453
14 1 -54.6666 4.27497 399.969 -54.6666 4.27497 399.969
7 1 -59.3478 2.77316 399.06 -59.3478 2.77316 399.06
25 1 -46.6682 4.26646 400.443 -46.6682 4.26646 400.443
38 1 -38.6655 4.22279 400.958 -38.6655 4.22279 400.958
23 1 -48.4036 4.24128 402.311 -48.4036 4.24128 402.311
287 1 -51.8685 4.21564 406.029 -51.8685 4.21564 406.029
878 1 -42.8203 4.18158 414.653 -42.8203 4.18158 414.653
579 1 -49.0809 4.19347 412.216 -49.0809 4.19347 412.216
585 1 -45.6105 4.21047 408.47 -45.6105 4.21047 408.47
290 1 -50.1379 4.22538 404.157 -50.1379 4.22538 404.157
11 1 -56.3876 4.22356 401.749 -56.3876 4.22356 401.749
595 1 -39.3509 4.19828 410.905 -39.3509 4.19828 410.905
1134 1 -62.2732 4.16704 417.273 -62.2732 4.16704 417.273
283 1 -53.6055 4.21026 407.902 -53.6055 4.21026 407.902
582 1 -47.3454 4.20167 410.343 -47.3454 4.20167 410.343
276 1 -58.1337 4.2344 403.603 -58.1337 4.2344 403.603
569 1 -55.3425 4.20485 409.773 -55.3425 4.20485 409.773
847 1 -60.5404 4.17648 415.398 -60.5404 4.17648 415.398
556 1 -63.332 4.2048 409.21 -63.332 4.2048 409.21
272 1 -59.8753 4.23171 405.454 -59.8753 4.23171 405.454
3 1 -61.1705 2.7855 400.742 -61.1705 2.7855 400.742
35 1 -40.4027 4.23717 402.837 -40.4027 4.23717 402.837
598 1 -37.6165 4.20692 409.031 -37.6165 4.20692 409.031
850 1 -58.808 4.18622 413.522 -58.808 4.18622 413.522
304 1 -42.1384 4.22864 404.722 -42.1384 4.22864 404.722