ITEM: TIMESTEP
0
ITEM: NUMBER OF ATOMS
4630
ITEM: BOX BOUNDS xy xz yz pp pp pp
-6.3230103512630293e+01 1.0624913536083029e+02 0.0000000000000000e+00
0.0000000000000000e+00 4.4274527100805940e+00 0.0000000000000000e+00
3.8000000000000000e+02 5.0000000000000000e+02 0.0000000000000000e+00
ITEM: ATOMS id type x y z xu yu zu
7 1 -58.9968 2.85437 398.953 -58.9968 2.85437 398.953
27 1 -45.5292 2.14713 399.493 -45.5292 2.14713 399.493
36 1 -39.9306 1.40539 399.551 -39.9306 1.40539 399.551
45 1 -34.3356 0.665852 399.612 -34.3356 0.665852 399.612
85 1 -8.73837 0.668749 399.439 -8.73837 0.668749 399.439
94 1 -3.14025 4.35491 399.5 -3.14025 4.35491 399.5
103 1 2.45315 3.61624 399.565 2.45315 3.61624 399.565
112 1 8.0451 2.87808 399.63 8.0451 2.87808 399.63
152 1 33.6239 2.88576 399.461 33.6239 2.88576 399.461
161 1 39.2188 2.14449 399.52 39.2188 2.14449 399.52
170 1 44.8096 1.40555 399.582 44.8096 1.40555 399.582
227 1 81.5677 4.36084 399.513 81.5677 4.36084 399.513
236 1 87.1636 3.6194 399.568 87.1636 3.6194 399.568
245 1 92.7556 2.88013 399.627 92.7556 2.88013 399.627
5 1 -59.9013 0.638683 399.751 -59.9013 0.638683 399.751
2 1 -61.6804 0.652489 401.538 -61.6804 0.652489 401.538
3 1 -60.8187 2.86462 400.638 -60.8187 2.86462 400.638
1 1 -62.5268 2.83635 402.483 106.952 2.83635 402.483
4 1 -60.1646 3.5872 402.974 -60.1646 3.5872 402.974
9 1 -57.5195 1.30968 400.213 -57.5195 1.30968 400.213
8 1 -58.3939 3.5657 401.173 -58.3939 3.5657 401.173
10 1 -56.9088 2.07643 402.57 -56.9088 2.07643 402.57
6 1 -59.2887 1.37208 402.047 -59.2887 1.37208 402.047
11 1 -56.0508 4.29907 401.649 -56.0508 4.29907 401.649
12 1 -55.1899 2.12271 400.697 -55.1899 2.12271 400.697
16 1 -52.8152 2.81837 401.159 -52.8152 2.81837 401.159
15 1 -53.6827 0.617449 402.145 -53.6827 0.617449 402.145
14 1 -54.3441 4.3524 399.859 -54.3441 4.3524 399.859
17 1 -51.9571 0.619883 400.301 -51.9571 0.619883 400.301
13 1 -54.5399 2.82107 403.05 -54.5399 2.82107 403.05
22 1 -48.7223 3.59271 399.901 -48.7223 3.59271 399.901
20 1 -49.5955 1.37115 400.75 -49.5955 1.37115 400.75
19 1 -50.469 3.56152 401.681 -50.469 3.56152 401.681
18 1 -51.3183 1.34536 402.628 -51.3183 1.34536 402.628
21 1 -48.9676 2.09299 403.122 -48.9676 2.09299 403.122
23 1 -48.1019 4.31558 402.207 -48.1019 4.31558 402.207
26 1 -45.7285 0.621153 402.676 -45.7285 0.621153 402.676
24 1 -47.2506 2.1013 401.269 -47.2506 2.1013 401.269
28 1 -44.8694 2.84067 401.774 -44.8694 2.84067 401.774
25 1 -46.3759 4.34531 400.334 -46.3759 4.34531 400.334
29 1 -43.9991 0.612213 400.789 -43.9991 0.612213 400.789
31 1 -43.139 2.84092 399.933 -43.139 2.84092 399.933
34 1 -40.7814 3.60382 400.388 -40.7814 3.60382 400.388
32 1 -42.5021 3.57079 402.261 -42.5021 3.57079 402.261
33 1 -41.6579 1.36141 401.322 -41.6579 1.36141 401.322
30 1 -43.3723 1.34909 403.178 -43.3723 1.34909 403.178
35 1 -40.1339 4.30905 402.733 -40.1339 4.30905 402.733
40 1 -37.5427 2.1006 399.993 -37.5427 2.1006 399.993
37 1 -39.2756 2.1008 401.833 -39.2756 2.1008 401.833
41 1 -36.908 2.8311 402.321 -36.908 2.8311 402.321
38 1 -38.4038 4.29909 400.848 -38.4038 4.29909 400.848
39 1 -37.7784 0.609779 403.238 -37.7784 0.609779 403.238
43 1 -35.1862 2.86426 400.45 -35.1862 2.86426 400.45
42 1 -36.063 0.621636 401.384 -36.063 0.621636 401.384
44 1 -34.5397 3.56949 402.795 -34.5397 3.56949 402.795
46 1 -33.6811 1.36124 401.894 -33.6811 1.36124 401.894
47 1 -32.8091 3.55965 400.91 -32.8091 3.55965 400.91
49 1 -31.9479 1.36116 400.055 -31.9479 1.36116 400.055
52 1 -29.5918 2.12487 400.512 -29.5918 2.12487 400.512
50 1 -31.3137 2.09165 402.384 -31.3137 2.09165 402.384
51 1 -30.4686 4.30968 401.446 -30.4686 4.30968 401.446
53 1 -28.9456 2.83 402.858 -28.9456 2.83 402.858
54 1 -28.7413 4.3539 399.675 -28.7413 4.3539 399.675
48 1 -32.1843 4.29778 403.3 -32.1843 4.29778 403.3
58 1 -26.3537 0.621662 400.118 -26.3537 0.621662 400.118
59 1 -25.7199 1.35212 402.447 -25.7199 1.35212 402.447
56 1 -27.2149 2.82019 400.973 -27.2149 2.82019 400.973
55 1 -28.087 0.621751 401.957 -28.087 0.621751 401.957
60 1 -24.8747 3.57018 401.51 -24.8747 3.57018 401.51
57 1 -26.5905 3.55827 403.363 -26.5905 3.55827 403.363
61 1 -23.9979 1.38536 400.575 -23.9979 1.38536 400.575
63 1 -23.1476 3.61437 399.738 -23.1476 3.61437 399.738
62 1 -23.3519 2.09034 402.921 -23.3519 2.09034 402.921
64 1 -22.4932 4.30951 402.021 -22.4932 4.30951 402.021
65 1 -21.6213 2.08044 401.036 -21.6213 2.08044 401.036
66 1 -20.9969 2.81846 403.427 -20.9969 2.81846 403.427
70 1 -18.4046 0.64526 400.639 -18.4046 0.64526 400.639
68 1 -20.1262 0.612268 402.51 -20.1262 0.612268 402.51
69 1 -19.2816 2.83011 401.573 -19.2816 2.83011 401.573
67 1 -20.7602 4.30935 400.181 -20.7602 4.30935 400.181
72 1 -17.556 2.87395 399.8 -17.556 2.87395 399.8
71 1 -17.7579 1.35036 402.984 -17.7579 1.35036 402.984
75 1 -15.1695 3.56964 400.242 -15.1695 3.56964 400.242
74 1 -16.0279 1.34087 401.098 -16.0279 1.34087 401.098
73 1 -16.9005 3.56929 402.083 -16.9005 3.56929 402.083
76 1 -14.5323 4.29574 402.568 -14.5323 4.29574 402.568
77 1 -13.681 2.0838 401.622 -13.681 2.0838 401.622
348 1 -15.4004 2.07618 403.486 -15.4004 2.07618 403.486
80 1 -11.9321 2.11459 399.844 -11.9321 2.11459 399.844
81 1 -11.3135 2.83766 402.15 -11.3135 2.83766 402.15
78 1 -12.8068 4.3205 400.692 -12.8068 4.3205 400.692
79 1 -12.1802 0.615417 403.064 -12.1802 0.615417 403.064
83 1 -9.58574 2.86695 400.278 -9.58574 2.86695 400.278
82 1 -10.4614 0.623021 401.213 -10.4614 0.623021 401.213
87 1 -7.20912 3.56142 400.735 -7.20912 3.56142 400.735
84 1 -8.93984 3.57061 402.621 -8.93984 3.57061 402.621
86 1 -8.08009 1.36251 401.72 -8.08009 1.36251 401.72
89 1 -6.34847 1.36266 399.88 -6.34847 1.36266 399.88
90 1 -5.71305 2.09273 402.208 -5.71305 2.09273 402.208
88 1 -6.58373 4.29855 403.125 -6.58373 4.29855 403.125
92 1 -3.99133 2.12587 400.337 -3.99133 2.12587 400.337
93 1 -3.34517 2.83111 402.682 -3.34517 2.83111 402.682
91 1 -4.86827 4.31084 401.271 -4.86827 4.31084 401.271
96 1 -1.61424 2.82132 400.798 -1.61424 2.82132 400.798
95 1 -2.48653 0.622908 401.782 -2.48653 0.622908 401.782
98 1 -0.752789 0.622863 399.943 -0.752789 0.622863 399.943
100 1 0.725708 3.57175 401.336 0.725708 3.57175 401.336
99 1 -0.119611 1.35354 402.273 -0.119611 1.35354 402.273
97 1 -0.990341 3.55955 403.189 -0.990341 3.55955 403.189
101 1 1.60275 1.38715 400.402 1.60275 1.38715 400.402
102 1 2.248 2.09218 402.748 2.248 2.09218 402.748
105 1 3.97905 2.08281 400.864 3.97905 2.08281 400.864
104 1 3.10671 4.31156 401.848 3.10671 4.31156 401.848
108 1 5.47299 0.615028 402.338 5.47299 0.615028 402.338
107 1 4.84025 4.31182 400.008 4.84025 4.31182 400.008
106 1 4.60233 2.82091 403.255 4.60233 2.82091 403.255
110 1 7.19513 0.648981 400.467 7.19513 0.648981 400.467
111 1 7.84017 1.35372 402.814 7.84017 1.35372 402.814
109 1 6.31827 2.83345 401.402 6.31827 2.83345 401.402
113 1 8.69872 3.57321 401.913 8.69872 3.57321 401.913
114 1 9.57096 1.34461 400.929 9.57096 1.34461 400.929
116 1 10.4319 3.57363 400.074 10.4319 3.57363 400.074
118 1 11.9097 2.09531 401.468 11.9097 2.09531 401.468
117 1 11.0645 4.30421 402.405 11.0645 4.30421 402.405
121 1 13.6358 2.14 399.696 13.6358 2.14 399.696
120 1 13.4313 0.615388 402.88 13.4313 0.615388 402.88
119 1 12.7863 4.33837 400.533 12.7863 4.33837 400.533
115 1 10.194 2.08255 403.321 10.194 2.08255 403.321
122 1 14.2897 2.83493 401.979 14.2897 2.83493 401.979
123 1 15.1618 0.606442 400.995 15.1618 0.606442 400.995
125 1 16.0225 2.83542 400.14 16.0225 2.83542 400.14
126 1 16.6551 3.56591 402.47 16.6551 3.56591 402.47
127 1 17.5 1.35708 401.534 17.5 1.35708 401.534
124 1 15.7848 1.34421 403.387 15.7848 1.34421 403.387
130 1 19.2254 1.40177 399.761 19.2254 1.40177 399.761
128 1 18.3764 3.60016 400.599 18.3764 3.60016 400.599
129 1 19.0217 4.30434 402.945 19.0217 4.30434 402.945
131 1 19.8798 2.09643 402.045 19.8798 2.09643 402.045
132 1 20.7515 4.29537 401.06 20.7515 4.29537 401.06
133 1 21.3749 0.605515 403.452 21.3749 0.605515 403.452
134 1 21.612 2.09687 400.204 21.612 2.09687 400.204
136 1 23.0893 0.618129 401.598 23.0893 0.618129 401.598
135 1 22.2451 2.82717 402.535 22.2451 2.82717 402.535
139 1 24.8127 0.662421 399.824 24.8127 0.662421 399.824
137 1 23.9657 2.86115 400.663 23.9657 2.86115 400.663
138 1 24.612 3.56536 403.009 24.612 3.56536 403.009
141 1 26.3409 3.55677 401.123 26.3409 3.55677 401.123
140 1 25.4687 1.35719 402.108 25.4687 1.35719 402.108
142 1 27.1985 1.35812 400.266 27.1985 1.35812 400.266
143 1 27.8354 2.08396 402.593 27.8354 2.08396 402.593
144 1 28.6861 4.29996 401.647 28.6861 4.29996 401.647
145 1 29.5594 2.10949 400.716 29.5594 2.10949 400.716
147 1 30.4326 4.33096 399.868 30.4326 4.33096 399.868
146 1 30.1861 2.83125 403.089 30.1861 2.83125 403.089
150 1 32.7779 0.656501 400.302 32.7779 0.656501 400.302
148 1 31.052 0.626426 402.174 31.052 0.626426 402.174
149 1 31.9033 2.8398 401.237 31.9033 2.8398 401.237
153 1 34.2833 3.57892 401.743 34.2833 3.57892 401.743
151 1 33.4244 1.35928 402.645 33.4244 1.35928 402.645
156 1 36.0133 3.57944 399.901 36.0133 3.57944 399.901
154 1 35.1535 1.35075 400.757 35.1535 1.35075 400.757
157 1 36.6492 4.30921 402.231 36.6492 4.30921 402.231
155 1 35.7793 2.08729 403.148 35.7793 2.08729 403.148
158 1 37.4932 2.10021 401.293 37.4932 2.10021 401.293
159 1 38.3692 4.34292 400.358 38.3692 4.34292 400.358
162 1 39.8739 2.83933 401.803 39.8739 2.83933 401.803
160 1 39.0162 0.619869 402.704 39.0162 0.619869 402.704
163 1 40.7454 0.610637 400.818 40.7454 0.610637 400.818
165 1 41.6059 2.83961 399.962 41.6059 2.83961 399.962
164 1 41.3701 1.34824 403.21 41.3701 1.34824 403.21
168 1 43.9606 3.60395 400.42 43.9606 3.60395 400.42
167 1 43.0845 1.36095 401.355 43.0845 1.36095 401.355
166 1 42.24 3.56991 402.292 42.24 3.56991 402.292
169 1 44.607 4.30822 402.766 44.607 4.30822 402.766
171 1 45.4648 2.10031 401.865 45.4648 2.10031 401.865
174 1 47.1965 2.1008 400.024 47.1965 2.1008 400.024
175 1 47.8306 2.83105 402.354 47.8306 2.83105 402.354
172 1 46.3363 4.29927 400.88 46.3363 4.29927 400.88
173 1 46.9608 0.609315 403.272 46.9608 0.609315 403.272
177 1 49.5509 2.86528 400.482 49.5509 2.86528 400.482
176 1 48.675 0.622213 401.417 48.675 0.622213 401.417
179 1 50.3997 0.666881 399.644 50.3997 0.666881 399.644
181 1 51.9265 3.56057 400.942 51.9265 3.56057 400.942
178 1 50.1974 3.56939 402.828 50.1974 3.56939 402.828
180 1 51.0551 1.36154 401.927 51.0551 1.36154 401.927
183 1 52.7866 1.3621 400.086 52.7866 1.3621 400.086
184 1 53.4207 2.09231 402.416 53.4207 2.09231 402.416
186 1 55.1408 2.1266 400.543 55.1408 2.1266 400.543
187 1 55.7875 2.83063 402.889 55.7875 2.83063 402.889
188 1 55.9894 4.35566 399.705 55.9894 4.35566 399.705
185 1 54.265 4.31097 401.479 54.265 4.31097 401.479
182 1 52.5511 4.29798 403.333 52.5511 4.29798 403.333
189 1 56.6451 0.622794 401.988 56.6451 0.622794 401.988
192 1 58.3763 0.623378 400.147 58.3763 0.623378 400.147
194 1 59.8548 3.57222 401.54 59.8548 3.57222 401.54
193 1 59.0106 1.35355 402.477 59.0106 1.35355 402.477
190 1 57.5163 2.82185 401.003 57.5163 2.82185 401.003
191 1 58.1411 3.55921 403.395 58.1411 3.55921 403.395
195 1 60.7305 1.38785 400.604 60.7305 1.38785 400.604
197 1 61.5788 3.61689 399.766 61.5788 3.61689 399.766
199 1 63.1059 2.08303 401.064 63.1059 2.08303 401.064
196 1 61.3774 2.09181 402.95 61.3774 2.09181 402.95
198 1 62.2348 4.31142 402.049 62.2348 4.31142 402.049
200 1 63.731 2.82036 403.455 63.731 2.82036 403.455
202 1 64.6003 0.614668 402.537 64.6003 0.614668 402.537
201 1 63.9657 4.31198 400.207 63.9657 4.31198 400.207
206 1 67.1679 2.87796 399.826 67.1679 2.87796 399.826
204 1 66.3198 0.648929 400.664 66.3198 0.648929 400.664
203 1 65.4444 2.83333 401.6 65.4444 2.83333 401.6
205 1 66.9671 1.35281 403.01 66.9671 1.35281 403.01
207 1 67.8244 3.57237 402.108 67.8244 3.57237 402.108
209 1 69.5549 3.57282 400.267 69.5549 3.57282 400.267
208 1 68.6952 1.34388 401.123 68.6952 1.34388 401.123
211 1 71.0335 2.09381 401.659 71.0335 2.09381 401.659
210 1 70.1901 4.30288 402.597 70.1901 4.30288 402.597
212 1 71.9091 4.33679 400.723 71.9091 4.33679 400.723
214 1 72.7555 2.13803 399.883 72.7555 2.13803 399.883
217 1 75.1417 2.8336 400.323 75.1417 2.8336 400.323
216 1 74.2847 0.604811 401.181 74.2847 0.604811 401.181
215 1 73.4134 2.83272 402.166 73.4134 2.83272 402.166
213 1 72.5575 0.61344 403.069 72.5575 0.61344 403.069
218 1 75.7807 3.55934 402.65 75.7807 3.55934 402.65
220 1 77.5033 3.58478 400.771 77.5033 3.58478 400.771
219 1 76.6306 1.34783 401.703 76.6306 1.34783 401.703
222 1 78.376 1.37881 399.922 78.376 1.37881 399.922
223 1 78.9973 2.10167 402.228 78.9973 2.10167 402.228
221 1 78.132 4.30654 403.143 78.132 4.30654 403.143
224 1 79.8479 4.31495 401.29 79.8479 4.31495 401.29
225 1 80.722 2.13159 400.354 80.722 2.13159 400.354
229 1 83.0982 2.82585 400.808 83.0982 2.82585 400.808
228 1 82.2287 0.626658 401.794 82.2287 0.626658 401.794
226 1 81.3703 2.83452 402.696 81.3703 2.83452 402.696
231 1 83.9576 0.627087 399.951 83.9576 0.627087 399.951
234 1 86.3142 1.39039 400.406 86.3142 1.39039 400.406
233 1 85.4387 3.57522 401.341 85.4387 3.57522 401.341
235 1 86.9628 2.09504 402.751 86.9628 2.09504 402.751
232 1 84.5952 1.35689 402.28 84.5952 1.35689 402.28
230 1 83.7259 3.56249 403.198 83.7259 3.56249 403.198
241 1 90.1868 0.617431 402.338 90.1868 0.617431 402.338
238 1 88.6911 2.08555 400.865 88.6911 2.08555 400.865
240 1 89.5512 4.31449 400.009 89.5512 4.31449 400.009
237 1 87.8201 4.3144 401.85 87.8201 4.3144 401.85
239 1 89.3174 2.82339 403.256 89.3174 2.82339 403.256
242 1 91.0308 2.83573 401.4 91.0308 2.83573 401.4
243 1 91.9065 0.65109 400.465 91.9065 0.65109 400.465
247 1 94.2826 1.34603 400.924 94.2826 1.34603 400.924
246 1 93.4118 3.57494 401.909 93.4118 3.57494 401.909
244 1 92.5543 1.35567 402.81 92.5543 1.35567 402.81
254 1 98.3446 2.13844 399.687 98.3446 2.13844 399.687
249 1 95.1429 3.5749 400.068 95.1429 3.5749 400.068
253 1 98.1457 0.616248 402.87 98.1457 0.616248 402.87
251 1 96.6214 2.09565 401.46 96.6214 2.09565 401.46
252 1 97.4978 4.33781 400.525 97.4978 4.33781 400.525
250 1 95.778 4.30533 402.398 95.778 4.30533 402.398
248 1 94.9086 2.08415 403.315 94.9086 2.08415 403.315
258 1 100.73 2.83078 400.128 100.73 2.83078 400.128
255 1 99.0018 2.83447 401.969 99.0018 2.83447 401.969
259 1 101.364 3.5708 402.463 101.364 3.5708 402.463
260 1 102.207 1.36407 401.534 102.207 1.36407 401.534
256 1 99.8743 0.604537 400.984 99.8743 0.604537 400.984
257 1 100.498 1.34903 403.379 100.498 1.34903 403.379
263 1 103.911 1.401 399.775 103.911 1.401 399.775
261 1 103.066 3.60825 400.595 103.066 3.60825 400.595
264 1 104.614 2.09736 402.006 104.614 2.09736 402.006
265 1 105.458 4.29393 401.046 105.458 4.29393 401.046
262 1 103.743 4.30771 402.923 103.743 4.30771 402.923
266 1 106.1 0.60644 403.427 106.1 0.60644 403.427
268 1 -61.8763 3.55858 404.861 -61.8763 3.55858 404.861
271 1 -60.3758 2.07485 406.306 -60.3758 2.07485 406.306
270 1 -61.0194 1.35795 403.913 -61.0194 1.35795 403.913
267 1 -62.7354 1.33612 405.805 -62.7354 1.33612 405.805
272 1 -59.5185 4.29855 405.366 -59.5185 4.29855 405.366
269 1 -61.236 4.27947 407.249 -61.236 4.27947 407.249
277 1 -57.1481 0.60214 405.873 -57.1481 0.60214 405.873
274 1 -58.6561 2.09225 404.424 -58.6561 2.09225 404.424
278 1 -56.2785 2.81624 404.933 -56.2785 2.81624 404.933
275 1 -58.011 2.80993 406.807 -58.011 2.80993 406.807
276 1 -57.7881 4.30557 403.506 -57.7881 4.30557 403.506
279 1 -55.6432 3.53998 407.312 -55.6432 3.53998 407.312
280 1 -55.4116 0.603241 404.003 -55.4116 0.603241 404.003
286 1 -52.1855 3.55175 403.547 -52.1855 3.55175 403.547
282 1 -53.9108 3.54565 405.435 -53.9108 3.54565 405.435
284 1 -53.0455 1.33776 404.504 -53.0455 1.33776 404.504
281 1 -54.7779 1.32972 406.377 -54.7779 1.32972 406.377
285 1 -52.4116 2.06348 406.881 -52.4116 2.06348 406.881
291 1 -49.1845 0.593583 406.442 -49.1845 0.593583 406.442
288 1 -50.6853 2.07685 405.003 -50.6853 2.07685 405.003
292 1 -48.3224 2.81573 405.503 -48.3224 2.81573 405.503
287 1 -51.5486 4.28177 405.938 -51.5486 4.28177 405.938
290 1 -49.8269 4.29585 404.06 -49.8269 4.29585 404.06
294 1 -47.4582 0.610435 404.564 -47.4582 0.610435 404.564
297 1 -45.9572 3.54988 406.005 -45.9572 3.54988 406.005
296 1 -46.5988 2.82851 403.626 -46.5988 2.82851 403.626
298 1 -45.094 1.34227 405.062 -45.094 1.34227 405.062
295 1 -46.8194 1.32972 406.944 -46.8194 1.32972 406.944
300 1 -44.2305 3.56281 404.131 -44.2305 3.56281 404.131
306 1 -41.0041 2.08727 403.684 -41.0041 2.08727 403.684
302 1 -42.7282 2.07538 405.562 -42.7282 2.07538 405.562
304 1 -41.8619 4.29716 404.624 -41.8619 4.29716 404.624
301 1 -43.59 4.28399 406.505 -43.59 4.28399 406.505
305 1 -41.2249 0.590239 407.004 -41.2249 0.590239 407.004
307 1 -40.3631 2.80988 406.065 -40.3631 2.80988 406.065
310 1 -38.637 2.82343 404.19 -38.637 2.82343 404.19
312 1 -37.1346 1.33627 405.622 -37.1346 1.33627 405.622
311 1 -37.9964 3.54464 406.565 -37.9964 3.54464 406.565
308 1 -39.4996 0.602546 405.122 -39.4996 0.602546 405.122
313 1 -36.2684 3.55795 404.684 -36.2684 3.55795 404.684
315 1 -35.4102 1.34791 403.746 -35.4102 1.34791 403.746
316 1 -34.7696 2.07076 406.127 -34.7696 2.07076 406.127
317 1 -33.906 4.29072 405.183 -33.906 4.29072 405.183
314 1 -35.6315 4.2786 407.065 -35.6315 4.2786 407.065
319 1 -33.0431 2.08403 404.252 -33.0431 2.08403 404.252
320 1 -32.4029 2.80543 406.627 -32.4029 2.80543 406.627
324 1 -29.8162 0.608457 403.808 -29.8162 0.608457 403.808
321 1 -31.541 0.596937 405.685 -31.541 0.596937 405.685
322 1 -30.6746 2.81854 404.747 -30.6746 2.81854 404.747
323 1 -30.038 3.53931 407.128 -30.038 3.53931 407.128
325 1 -29.176 1.33138 406.189 -29.176 1.33138 406.189
328 1 -27.4493 1.34454 404.315 -27.4493 1.34454 404.315
326 1 -28.3122 3.55127 405.246 -28.3122 3.55127 405.246
329 1 -26.8093 2.06599 406.691 -26.8093 2.06599 406.691
330 1 -25.9473 4.28489 405.748 -25.9473 4.28489 405.748
331 1 -25.0808 2.07899 404.81 -25.0808 2.07899 404.81
337 1 -21.8556 0.604833 404.379 -21.8556 0.604833 404.379
334 1 -23.5823 0.591806 406.253 -23.5823 0.591806 406.253
335 1 -22.7186 2.81162 405.31 -22.7186 2.81162 405.31
333 1 -24.2225 4.29632 403.872 -24.2225 4.29632 403.872
338 1 -21.2157 1.32629 406.754 -21.2157 1.32629 406.754
332 1 -24.4445 2.79979 407.191 -24.4445 2.79979 407.191
340 1 -19.4871 1.33914 404.874 -19.4871 1.33914 404.874
342 1 -18.629 3.55632 403.935 -18.629 3.55632 403.935
339 1 -20.3538 3.54509 405.812 -20.3538 3.54509 405.812
344 1 -17.1242 2.07079 405.372 -17.1242 2.07079 405.372
343 1 -17.9888 4.27881 406.316 -17.9888 4.27881 406.316
341 1 -18.8508 2.05968 407.255 -18.8508 2.05968 407.255
347 1 -15.6248 0.58706 406.82 -15.6248 0.58706 406.82
349 1 -14.7627 2.80615 405.877 -14.7627 2.80615 405.877
346 1 -16.2618 4.29076 404.44 -16.2618 4.29076 404.44
350 1 -13.8998 0.600654 404.943 -13.8998 0.600654 404.943
351 1 -13.2607 1.324 407.323 -13.2607 1.324 407.323
353 1 -12.3983 3.54446 406.383 -12.3983 3.54446 406.383
352 1 -13.0403 2.81892 404.001 -13.0403 2.81892 404.001
354 1 -11.5359 1.33872 405.445 -11.5359 1.33872 405.445
356 1 -10.6709 3.56048 404.508 -10.6709 3.56048 404.508
358 1 -9.81096 1.35072 403.57 -9.81096 1.35072 403.57
357 1 -10.033 4.28005 406.887 -10.033 4.28005 406.887
363 1 -6.8031 2.80639 406.451 -6.8031 2.80639 406.451
359 1 -9.17033 2.07247 405.949 -9.17033 2.07247 405.949
362 1 -7.44259 2.08495 404.077 -7.44259 2.08495 404.077
360 1 -8.30661 4.29207 405.007 -8.30661 4.29207 405.007
364 1 -5.94088 0.597633 405.509 -5.94088 0.597633 405.509
368 1 -4.21584 0.609343 403.633 -4.21584 0.609343 403.633
366 1 -5.07407 2.81929 404.572 -5.07407 2.81929 404.572
369 1 -3.57599 1.33214 406.014 -3.57599 1.33214 406.014
367 1 -4.43818 3.54002 406.953 -4.43818 3.54002 406.953
370 1 -2.71216 3.55222 405.071 -2.71216 3.55222 405.071
372 1 -1.84926 1.34566 404.14 -1.84926 1.34566 404.14
376 1 0.518787 2.0804 404.637 0.518787 2.0804 404.637
373 1 -1.20974 2.067 406.516 -1.20974 2.067 406.516
374 1 -0.347716 4.28611 405.574 -0.347716 4.28611 405.574
379 1 2.01667 0.593373 406.08 2.01667 0.593373 406.08
378 1 1.37723 4.29793 403.698 1.37723 4.29793 403.698
377 1 1.15455 2.80113 407.018 1.15455 2.80113 407.018
383 1 4.3826 1.32832 406.582 4.3826 1.32832 406.582
380 1 2.88044 2.81345 405.137 2.88044 2.81345 405.137
382 1 3.74343 0.606909 404.206 3.74343 0.606909 404.206
384 1 5.2446 3.54745 405.64 5.2446 3.54745 405.64
385 1 6.11109 1.34179 404.703 6.11109 1.34179 404.703
387 1 6.9695 3.55941 403.764 6.9695 3.55941 403.764
388 1 7.60868 4.28226 406.146 7.60868 4.28226 406.146
386 1 6.74661 2.06253 407.085 6.74661 2.06253 407.085
389 1 8.47238 2.07492 405.204 8.47238 2.07492 405.204
391 1 9.33526 4.2959 404.273 9.33526 4.2959 404.273
392 1 9.97432 0.5898 406.649 9.97432 0.5898 406.649
393 1 10.8362 2.80899 405.707 10.8362 2.80899 405.707
394 1 11.7026 0.603372 404.769 11.7026 0.603372 404.769
396 1 12.5608 2.82105 403.831 12.5608 2.82105 403.831
397 1 13.2 3.5438 406.213 13.2 3.5438 406.213
395 1 12.3381 1.32404 407.151 12.3381 1.32404 407.151
398 1 14.0636 1.33649 405.27 14.0636 1.33649 405.27
400 1 14.9263 3.5575 404.339 14.9263 3.5575 404.339
401 1 15.5654 4.27877 406.715 15.5654 4.27877 406.715
402 1 16.4272 2.07052 405.773 16.4272 2.07052 405.773
403 1 17.2933 4.29236 404.835 17.2933 4.29236 404.835
405 1 18.1514 2.0826 403.896 18.1514 2.0826 403.896
406 1 18.7908 2.80524 406.279 18.7908 2.80524 406.279
409 1 20.5167 2.81888 404.404 20.5167 2.81888 404.404
410 1 21.1562 3.54004 406.781 21.1562 3.54004 406.781
407 1 19.6541 0.597892 405.336 19.6541 0.597892 405.336
404 1 17.929 0.585492 407.217 17.929 0.585492 407.217
412 1 22.8839 3.55351 404.9 22.8839 3.55351 404.9
411 1 22.0177 1.33171 405.838 22.0177 1.33171 405.838
415 1 24.3814 2.06567 406.343 24.3814 2.06567 406.343
414 1 23.7415 1.3436 403.961 23.7415 1.3436 403.961
416 1 25.2454 4.28539 405.398 25.2454 4.28539 405.398
413 1 23.5198 4.2737 407.282 23.5198 4.2737 407.282
418 1 26.1072 2.0782 404.466 26.1072 2.0782 404.466
419 1 26.744 2.80159 406.847 26.744 2.80159 406.847
420 1 26.9679 4.29151 403.511 26.9679 4.29151 403.511
421 1 27.6056 0.593564 405.904 27.6056 0.593564 405.904
422 1 28.4679 2.81583 404.969 28.4679 2.81583 404.969
424 1 29.3267 0.607021 404.027 29.3267 0.607021 404.027
426 1 30.8306 3.55397 405.47 30.8306 3.55397 405.47
425 1 29.9688 1.33199 406.41 29.9688 1.33199 406.41
430 1 32.5541 3.5666 403.594 32.5541 3.5666 403.594
428 1 31.6949 1.34855 404.533 31.6949 1.34855 404.533
429 1 32.3331 2.06759 406.913 32.3331 2.06759 406.913
432 1 34.0581 2.08015 405.032 34.0581 2.08015 405.032
431 1 33.1951 4.28774 405.975 33.1951 4.28774 405.975
435 1 35.5613 0.594165 406.476 35.5613 0.594165 406.476
436 1 36.4228 2.81315 405.533 36.4228 2.81315 405.533
434 1 34.9213 4.30079 404.101 34.9213 4.30079 404.101
440 1 38.1463 2.82539 403.655 38.1463 2.82539 403.655
438 1 37.2889 0.607612 404.595 37.2889 0.607612 404.595
439 1 37.9254 1.32772 406.976 37.9254 1.32772 406.976
442 1 39.6499 1.3404 405.094 39.6499 1.3404 405.094
441 1 38.7869 3.54754 406.037 38.7869 3.54754 406.037
444 1 40.5121 3.56152 404.162 40.5121 3.56152 404.162
446 1 42.0137 2.07413 405.595 42.0137 2.07413 405.595
445 1 41.1524 4.28223 406.538 41.1524 4.28223 406.538
450 1 43.7371 2.08638 403.717 43.7371 2.08638 403.717
451 1 44.3775 2.80863 406.099 44.3775 2.80863 406.099
448 1 42.8794 4.29608 404.656 42.8794 4.29608 404.656
449 1 43.5161 0.58871 407.038 43.5161 0.58871 407.038
452 1 45.2405 0.601439 405.156 45.2405 0.601439 405.156
454 1 46.1027 2.82254 404.224 46.1027 2.82254 404.224
457 1 48.47 3.55718 404.719 48.47 3.55718 404.719
455 1 46.743 3.54332 406.6 46.743 3.54332 406.6
456 1 47.6043 1.33521 405.657 47.6043 1.33521 405.657
459 1 49.3276 1.34752 403.779 49.3276 1.34752 403.779
458 1 49.1067 4.27727 407.1 49.1067 4.27727 407.1
460 1 49.9681 2.06974 406.161 49.9681 2.06974 406.161
463 1 51.6931 2.08371 404.286 51.6931 2.08371 404.286
461 1 50.831 4.29003 405.218 50.831 4.29003 405.218
464 1 52.3336 2.80446 406.662 52.3336 2.80446 406.662
465 1 53.1947 0.596373 405.719 53.1947 0.596373 405.719
468 1 54.9178 0.608738 403.841 54.9178 0.608738 403.841
466 1 54.0603 2.81837 404.78 54.0603 2.81837 404.78
469 1 55.5585 1.33092 406.223 55.5585 1.33092 406.223
467 1 54.6972 3.53844 407.162 54.6972 3.53844 407.162
470 1 56.4213 3.55122 405.279 56.4213 3.55122 405.279
472 1 57.2833 1.34492 404.347 57.2833 1.34492 404.347
475 1 59.6504 2.07957 404.841 59.6504 2.07957 404.841
473 1 57.9239 2.06565 406.723 57.9239 2.06565 406.723
474 1 58.785 4.28502 405.78 58.785 4.28502 405.78
477 1 60.5078 4.29739 403.902 60.5078 4.29739 403.902
481 1 62.8733 0.606079 404.408 62.8733 0.606079 404.408
478 1 61.1487 0.592117 406.284 61.1487 0.592117 406.284
479 1 62.0115 2.8124 405.34 62.0115 2.8124 405.34
482 1 63.5142 1.32683 406.784 63.5142 1.32683 406.784
476 1 60.2876 2.79964 407.223 60.2876 2.79964 407.223
483 1 64.3752 3.54617 405.84 64.3752 3.54617 405.84
486 1 66.0978 3.55846 403.962 66.0978 3.55846 403.962
488 1 67.6016 2.07343 405.4 67.6016 2.07343 405.4
484 1 65.2405 1.34068 404.902 65.2405 1.34068 404.902
487 1 66.739 4.28067 406.344 66.739 4.28067 406.344
485 1 65.878 2.06077 407.283 65.878 2.06077 407.283
490 1 68.4634 4.2945 404.467 68.4634 4.2945 404.467
493 1 69.9654 2.80705 405.9 69.9654 2.80705 405.9
491 1 69.1047 0.587819 406.843 69.1047 0.587819 406.843
494 1 70.8309 0.601493 404.961 70.8309 0.601493 404.961
492 1 69.3207 2.08119 403.515 69.3207 2.08119 403.515
496 1 71.6877 2.81909 404.021 71.6877 2.81909 404.021
497 1 72.3295 3.54089 406.402 72.3295 3.54089 406.402
500 1 74.0539 3.55356 404.524 74.0539 3.55356 404.524
498 1 73.1929 1.33324 405.457 73.1929 1.33324 405.457
502 1 74.9139 1.33943 403.568 74.9139 1.33943 403.568
501 1 74.6926 4.27674 406.904 74.6926 4.27674 406.904
503 1 75.5535 2.06878 405.96 75.5535 2.06878 405.96
506 1 77.2732 2.0823 404.082 77.2732 2.0823 404.082
507 1 77.9172 2.8072 406.464 77.9172 2.8072 406.464
504 1 76.4151 4.2911 405.024 76.4151 4.2911 405.024
508 1 78.7783 0.60177 405.524 78.7783 0.60177 405.524
510 1 79.642 2.82383 404.586 79.642 2.82383 404.586
512 1 80.5006 0.6144 403.647 80.5006 0.6144 403.647
514 1 82.0058 3.55546 405.083 82.0058 3.55546 405.083
516 1 82.8685 1.34861 404.151 82.8685 1.34861 404.151
513 1 81.1434 1.33558 406.026 81.1434 1.33558 406.026
511 1 80.2821 3.54286 406.965 80.2821 3.54286 406.965
517 1 83.5103 2.06957 406.525 83.5103 2.06957 406.525
523 1 86.7358 0.595612 406.084 86.7358 0.595612 406.084
520 1 85.2366 2.08294 404.643 85.2366 2.08294 404.643
518 1 84.3712 4.28853 405.582 84.3712 4.28853 405.582
522 1 86.0935 4.30063 403.703 86.0935 4.30063 403.703
521 1 85.875 2.8033 407.024 85.875 2.8033 407.024
526 1 88.4599 0.609379 404.208 88.4599 0.609379 404.208
528 1 89.9628 3.54974 405.64 89.9628 3.54974 405.64
524 1 87.5983 2.81583 405.14 87.5983 2.81583 405.14
529 1 90.8279 1.34405 404.701 90.8279 1.34405 404.701
527 1 89.102 1.33054 406.584 89.102 1.33054 406.584
536 1 94.6938 0.592477 406.643 94.6938 0.592477 406.643
531 1 91.685 3.56156 403.762 91.685 3.56156 403.762
533 1 93.1897 2.07713 405.199 93.1897 2.07713 405.199
532 1 92.3273 4.28459 406.143 92.3273 4.28459 406.143
535 1 94.0513 4.29788 404.267 94.0513 4.29788 404.267
530 1 91.4665 2.06487 407.082 91.4665 2.06487 407.082
538 1 96.4195 0.605584 404.761 96.4195 0.605584 404.761
541 1 97.9191 3.5478 406.203 97.9191 3.5478 406.203
540 1 97.2762 2.82269 403.822 97.2762 2.82269 403.822
537 1 95.5544 2.8115 405.7 95.5544 2.8115 405.7
539 1 97.0587 1.32784 407.142 97.0587 1.32784 407.142
546 1 101.151 2.07536 405.754 101.151 2.07536 405.754
544 1 99.6417 3.56188 404.329 99.6417 3.56188 404.329
542 1 98.7813 1.34073 405.26 98.7813 1.34073 405.26
547 1 102.016 4.29728 404.816 102.016 4.29728 404.816
545 1 100.289 4.28333 406.699 100.289 4.28333 406.699
553 1 105.241 2.82002 404.371 105.241 2.82002 404.371
550 1 103.517 2.8077 406.253 103.517 2.8077 406.253
554 1 105.882 3.54281 406.749 105.882 3.54281 406.749
549 1 102.879 2.08756 403.871 102.879 2.08756 403.871
551 1 104.379 0.600036 405.309 104.379 0.600036 405.309
548 1 102.655 0.588358 407.194 102.655 0.588358 407.194
560 1 -60.5947 0.57283 409.632 -60.5947 0.57283 409.632
558 1 -62.0964 2.05782 408.19 -62.0964 2.05782 408.19
562 1 -59.7333 2.79425 408.69 -59.7333 2.79425 408.69
559 1 -61.4561 2.77923 410.573 -61.4561 2.77923 410.573
556 1 -62.9581 4.26436 409.132 -62.9581 4.26436 409.132
273 1 -58.8729 0.588605 407.75 -58.8729 0.588605 407.75
565 1 -57.3693 3.52887 409.191 -57.3693 3.52887 409.191
568 1 -55.8666 2.04261 410.634 -55.8666 2.04261 410.634
567 1 -56.5073 1.32173 408.252 -56.5073 1.32173 408.252
564 1 -58.231 1.30811 410.132 -58.231 1.30811 410.132
563 1 -59.0924 3.51461 411.073 -59.0924 3.51461 411.073
573 1 -52.6382 0.568909 410.197 -52.6382 0.568909 410.197
571 1 -54.1408 2.05408 408.756 -54.1408 2.05408 408.756
283 1 -53.2764 4.27206 407.817 -53.2764 4.27206 407.817
569 1 -55.0041 4.26237 409.694 -55.0041 4.26237 409.694
574 1 -51.7744 2.78829 409.26 -51.7744 2.78829 409.26
572 1 -53.5013 2.77694 411.137 -53.5013 2.77694 411.137
576 1 -50.9107 0.579922 408.32 -50.9107 0.579922 408.32
578 1 -49.4086 3.52341 409.762 -49.4086 3.52341 409.762
289 1 -50.0469 2.80051 407.382 -50.0469 2.80051 407.382
580 1 -48.5453 1.31591 408.823 -48.5453 1.31591 408.823
577 1 -50.2722 1.30353 410.7 -50.2722 1.30353 410.7
293 1 -47.6824 3.53651 407.883 -47.6824 3.53651 407.883
299 1 -44.4537 2.06352 407.443 -44.4537 2.06352 407.443
583 1 -46.1797 2.05082 409.323 -46.1797 2.05082 409.323
585 1 -45.3166 4.27101 408.384 -45.3166 4.27101 408.384
582 1 -47.0428 4.25817 410.263 -47.0428 4.25817 410.263
586 1 -44.6773 0.56501 410.763 -44.6773 0.56501 410.763
589 1 -42.9511 0.577643 408.884 -42.9511 0.577643 408.884
591 1 -41.4489 3.51912 410.324 -41.4489 3.51912 410.324
303 1 -42.0885 2.79735 407.944 -42.0885 2.79735 407.944
587 1 -43.8143 2.78496 409.823 -43.8143 2.78496 409.823
592 1 -40.5857 1.31172 409.384 -40.5857 1.31172 409.384
309 1 -38.8598 1.32416 407.504 -38.8598 1.32416 407.504
594 1 -39.7228 3.53166 408.444 -39.7228 3.53166 408.444