ITEM: TIMESTEP
0
ITEM: NUMBER OF ATOMS
4630
ITEM: BOX BOUNDS xy xz yz pp pp pp
-6.3326816026124433e+01 1.0634584787432443e+02 0.0000000000000000e+00
0.0000000000000000e+00 4.4274527100805940e+00 0.0000000000000000e+00
3.8000000000000000e+02 5.0000000000000000e+02 0.0000000000000000e+00
ITEM: ATOMS id type x y z xu yu zu
7 1 -59.0846 2.83457 398.98 -59.0846 2.83457 398.98
27 1 -45.6004 2.12789 399.522 -45.6004 2.12789 399.522
36 1 -39.996 1.38628 399.579 -39.996 1.38628 399.579
45 1 -34.3951 0.646867 399.641 -34.3951 0.646867 399.641
85 1 -8.76986 0.650175 399.467 -8.76986 0.650175 399.467
94 1 -3.16582 4.33649 399.528 -3.16582 4.33649 399.528
103 1 2.43366 3.59787 399.592 2.43366 3.59787 399.592
112 1 8.03182 2.85971 399.658 8.03182 2.85971 399.658
152 1 33.6407 2.8666 399.487 33.6407 2.8666 399.487
161 1 39.2419 2.12525 399.546 39.2419 2.12525 399.546
170 1 44.8393 1.38615 399.607 44.8393 1.38615 399.607
227 1 81.6413 4.34091 399.539 81.6413 4.34091 399.539
236 1 87.2435 3.59952 399.594 87.2435 3.59952 399.594
245 1 92.8417 2.86023 399.653 92.8417 2.86023 399.653
5 1 -59.9884 0.619176 399.778 -59.9884 0.619176 399.778
2 1 -61.7713 0.633345 401.563 -61.7713 0.633345 401.563
3 1 -60.9066 2.84533 400.664 -60.9066 2.84533 400.664
1 1 -62.6193 2.8179 402.506 107.053 2.8179 402.506
4 1 -60.2541 3.56963 402.998 -60.2541 3.56963 402.998
9 1 -57.6055 1.29168 400.24 -57.6055 1.29168 400.24
8 1 -58.4803 3.54742 401.199 -58.4803 3.54742 401.199
10 1 -56.994 2.05856 402.595 -56.994 2.05856 402.595
6 1 -59.3767 1.35394 402.073 -59.3767 1.35394 402.073
11 1 -56.135 4.28066 401.674 -56.135 4.28066 401.674
12 1 -55.273 2.10377 400.723 -55.273 2.10377 400.723
16 1 -52.896 2.79985 401.185 -52.896 2.79985 401.185
15 1 -53.7644 0.599652 402.171 -53.7644 0.599652 402.171
14 1 -54.4247 4.33352 399.887 -54.4247 4.33352 399.887
17 1 -52.0367 0.601404 400.328 -52.0367 0.601404 400.328
13 1 -54.6229 2.80371 403.075 -54.6229 2.80371 403.075
22 1 -48.797 3.57412 399.929 -48.797 3.57412 399.929
20 1 -49.6725 1.35241 400.776 -49.6725 1.35241 400.776
19 1 -50.5471 3.54308 401.707 -50.5471 3.54308 401.707
18 1 -51.3974 1.32758 402.654 -51.3974 1.32758 402.654
21 1 -49.0442 2.07537 403.146 -49.0442 2.07537 403.146
23 1 -48.1773 4.29743 402.233 -48.1773 4.29743 402.233
26 1 -45.8016 0.603465 402.702 -45.8016 0.603465 402.702
24 1 -47.3249 2.08233 401.295 -47.3249 2.08233 401.295
28 1 -44.9413 2.82254 401.801 -44.9413 2.82254 401.801
25 1 -46.4489 4.32604 400.361 -46.4489 4.32604 400.361
29 1 -44.0702 0.59349 400.816 -44.0702 0.59349 400.816
31 1 -43.2092 2.82221 399.961 -43.2092 2.82221 399.961
34 1 -40.849 3.58468 400.415 -40.849 3.58468 400.415
32 1 -42.5715 3.5527 402.287 -42.5715 3.5527 402.287
33 1 -41.7264 1.34268 401.349 -41.7264 1.34268 401.349
30 1 -43.4427 1.33148 403.204 -43.4427 1.33148 403.204
35 1 -40.201 4.29151 402.759 -40.201 4.29151 402.759
40 1 -37.607 2.082 400.021 -37.607 2.082 400.021
37 1 -39.3417 2.08286 401.86 -39.3417 2.08286 401.86
41 1 -36.9715 2.81316 402.348 -36.9715 2.81316 402.348
38 1 -38.4692 4.28047 400.876 -38.4692 4.28047 400.876
39 1 -37.843 0.592327 403.264 -37.843 0.592327 403.264
43 1 -35.2479 2.84523 400.477 -35.2479 2.84523 400.477
42 1 -36.1257 0.603028 401.41 -36.1257 0.603028 401.41
44 1 -34.6009 3.55212 402.821 -34.6009 3.55212 402.821
46 1 -33.7413 1.34346 401.921 -33.7413 1.34346 401.921
47 1 -32.8685 3.54118 400.938 -32.8685 3.54118 400.938
49 1 -32.0063 1.34271 400.083 -32.0063 1.34271 400.083
52 1 -29.6475 2.10601 400.54 -29.6475 2.10601 400.54
50 1 -31.3712 2.07388 402.41 -31.3712 2.07388 402.41
51 1 -30.5253 4.29124 401.473 -30.5253 4.29124 401.473
53 1 -29.0008 2.81282 402.884 -29.0008 2.81282 402.884
54 1 -28.7948 4.33508 399.703 -28.7948 4.33508 399.703
48 1 -32.2429 4.2805 403.326 -32.2429 4.2805 403.326
58 1 -26.4061 0.603394 400.146 -26.4061 0.603394 400.146
59 1 -25.7713 1.33453 402.473 -25.7713 1.33453 402.473
56 1 -27.2683 2.80189 401.001 -27.2683 2.80189 401.001
55 1 -28.1411 0.604145 401.984 -28.1411 0.604145 401.984
60 1 -24.9254 3.55191 401.536 -24.9254 3.55191 401.536
57 1 -26.643 3.54118 403.389 -26.643 3.54118 403.389
61 1 -24.0476 1.36666 400.603 -24.0476 1.36666 400.603
63 1 -23.1951 3.59573 399.766 -23.1951 3.59573 399.766
62 1 -23.401 2.07334 402.947 -23.401 2.07334 402.947
64 1 -22.5413 4.29209 402.048 -22.5413 4.29209 402.048
65 1 -21.6687 2.06232 401.064 -21.6687 2.06232 401.064
66 1 -21.0433 2.80156 403.452 -21.0433 2.80156 403.452
70 1 -18.4481 0.626732 400.666 -18.4481 0.626732 400.666
68 1 -20.1716 0.594858 402.537 -20.1716 0.594858 402.537
69 1 -19.3261 2.81202 401.599 -19.3261 2.81202 401.599
67 1 -20.8064 4.29126 400.209 -20.8064 4.29126 400.209
72 1 -17.5973 2.85548 399.829 -17.5973 2.85548 399.829
71 1 -17.8009 1.33354 403.01 -17.8009 1.33354 403.01
75 1 -15.2095 3.55171 400.27 -15.2095 3.55171 400.27
74 1 -16.0691 1.3229 401.126 -16.0691 1.3229 401.126
73 1 -16.9424 3.55205 402.11 -16.9424 3.55205 402.11
76 1 -14.5714 4.27859 402.594 -14.5714 4.27859 402.594
77 1 -13.7193 2.06601 401.648 -13.7193 2.06601 401.648
348 1 -15.4407 2.05949 403.511 -15.4407 2.05949 403.511
80 1 -11.9672 2.09665 399.872 -11.9672 2.09665 399.872
81 1 -11.349 2.8202 402.176 -11.349 2.8202 402.176
78 1 -12.8442 4.3024 400.719 -12.8442 4.3024 400.719
79 1 -12.2169 0.598493 403.089 -12.2169 0.598493 403.089
83 1 -9.61899 2.84834 400.306 -9.61899 2.84834 400.306
82 1 -10.496 0.604713 401.239 -10.496 0.604713 401.239
87 1 -7.24039 3.54339 400.762 -7.24039 3.54339 400.762
84 1 -8.97296 3.55363 402.647 -8.97296 3.55363 402.647
86 1 -8.11214 1.34507 401.747 -8.11214 1.34507 401.747
89 1 -6.37884 1.34465 399.908 -6.37884 1.34465 399.908
90 1 -5.74248 2.07534 402.234 -5.74248 2.07534 402.234
88 1 -6.61418 4.28165 403.15 -6.61418 4.28165 403.15
92 1 -4.01904 2.1074 400.364 -4.01904 2.1074 400.364
93 1 -3.3723 2.81427 402.708 -3.3723 2.81427 402.708
91 1 -4.8969 4.2928 401.297 -4.8969 4.2928 401.297
96 1 -1.63966 2.80337 400.825 -1.63966 2.80337 400.825
95 1 -2.51262 0.605659 401.809 -2.51262 0.605659 401.809
98 1 -0.777187 0.604939 399.971 -0.777187 0.604939 399.971
100 1 0.703076 3.55378 401.361 0.703076 3.55378 401.361
99 1 -0.143014 1.33627 402.298 -0.143014 1.33627 402.298
97 1 -1.01477 3.54278 403.214 -1.01477 3.54278 403.214
101 1 1.58108 1.36874 400.428 1.58108 1.36874 400.428
102 1 2.22695 2.07544 402.773 2.22695 2.07544 402.773
105 1 3.95971 2.06492 400.89 3.95971 2.06492 400.89
104 1 3.08669 4.29438 401.874 3.08669 4.29438 401.874
108 1 5.45574 0.597801 402.364 5.45574 0.597801 402.364
107 1 4.82195 4.29395 400.036 4.82195 4.29395 400.036
106 1 4.58404 2.80421 403.279 4.58404 2.80421 403.279
110 1 7.17962 0.630578 400.494 7.17962 0.630578 400.494
111 1 7.82531 1.33702 402.839 7.82531 1.33702 402.839
109 1 6.3018 2.81551 401.427 6.3018 2.81551 401.427
113 1 8.68492 3.55605 401.939 8.68492 3.55605 401.939
114 1 9.55784 1.32672 400.956 9.55784 1.32672 400.956
116 1 10.4199 3.55576 400.101 10.4199 3.55576 400.101
118 1 11.8995 2.07734 401.493 11.8995 2.07734 401.493
117 1 11.0535 4.28698 402.43 11.0535 4.28698 402.43
121 1 13.6289 2.12158 399.723 13.6289 2.12158 399.723
120 1 13.4228 0.598664 402.904 13.4228 0.598664 402.904
119 1 12.7771 4.31992 400.559 12.7771 4.31992 400.559
115 1 10.182 2.06586 403.345 10.182 2.06586 403.345
122 1 14.2822 2.81774 402.005 14.2822 2.81774 402.005
123 1 15.155 0.588493 401.021 15.155 0.588493 401.021
125 1 16.0168 2.8175 400.166 16.0168 2.8175 400.166
126 1 16.6505 3.54861 402.495 16.6505 3.54861 402.495
127 1 17.4963 1.33903 401.558 17.4963 1.33903 401.558
124 1 15.7792 1.32747 403.411 15.7792 1.32747 403.411
130 1 19.225 1.38326 399.788 19.225 1.38326 399.788
128 1 18.3736 3.58161 400.624 18.3736 3.58161 400.624
129 1 19.0196 4.28754 402.969 19.0196 4.28754 402.969
131 1 19.8788 2.07916 402.07 19.8788 2.07916 402.07
132 1 20.7512 4.27732 401.086 20.7512 4.27732 401.086
133 1 21.3757 0.588685 403.475 21.3757 0.588685 403.475
134 1 21.6128 2.07884 400.231 21.6128 2.07884 400.231
136 1 23.0921 0.599967 401.622 23.0921 0.599967 401.622
135 1 22.247 2.80978 402.559 22.247 2.80978 402.559
139 1 24.819 0.643795 399.85 24.819 0.643795 399.85
137 1 23.9695 2.84249 400.688 23.9695 2.84249 400.688
138 1 24.6165 3.54847 403.033 24.6165 3.54847 403.033
141 1 26.3472 3.5386 401.148 26.3472 3.5386 401.148
140 1 25.4743 1.33982 402.132 25.4743 1.33982 402.132
142 1 27.206 1.33997 400.292 27.206 1.33997 400.292
143 1 27.8439 2.06657 402.617 27.8439 2.06657 402.617
144 1 28.6955 4.28184 401.671 28.6955 4.28184 401.671
145 1 29.5699 2.09101 400.741 29.5699 2.09101 400.741
147 1 30.4454 4.31264 399.894 30.4454 4.31264 399.894
146 1 30.1973 2.81397 403.111 30.1973 2.81397 403.111
150 1 32.7927 0.637329 400.327 32.7927 0.637329 400.327
148 1 31.0644 0.608541 402.198 31.0644 0.608541 402.198
149 1 31.9167 2.82098 401.261 31.9167 2.82098 401.261
153 1 34.2995 3.56093 401.768 34.2995 3.56093 401.768
151 1 33.4394 1.34181 402.668 33.4394 1.34181 402.668
156 1 36.0313 3.5608 399.927 36.0313 3.5608 399.927
154 1 35.1705 1.3321 400.782 35.1705 1.3321 400.782
157 1 36.6681 4.29115 402.254 36.6681 4.29115 402.254
155 1 35.7972 2.06979 403.171 35.7972 2.06979 403.171
158 1 37.513 2.08143 401.316 37.513 2.08143 401.316
159 1 38.3901 4.32365 400.383 38.3901 4.32365 400.383
162 1 39.8965 2.82131 401.827 39.8965 2.82131 401.827
160 1 39.0376 0.602311 402.727 39.0376 0.602311 402.727
163 1 40.7687 0.591839 400.843 40.7687 0.591839 400.843
165 1 41.6303 2.82083 399.988 41.6303 2.82083 399.988
164 1 41.3944 1.33065 403.232 41.3944 1.33065 403.232
168 1 43.9879 3.58452 400.444 43.9879 3.58452 400.444
167 1 43.1108 1.34202 401.378 43.1108 1.34202 401.378
166 1 42.2654 3.55175 402.316 42.2654 3.55175 402.316
169 1 44.6349 4.29055 402.789 44.6349 4.29055 402.789
171 1 45.4939 2.08215 401.889 45.4939 2.08215 401.889
174 1 47.2275 2.08187 400.049 47.2275 2.08187 400.049
175 1 47.8625 2.81277 402.377 47.8625 2.81277 402.377
172 1 46.3661 4.28032 400.904 46.3661 4.28032 400.904
173 1 46.9916 0.591605 403.294 46.9916 0.591605 403.294
177 1 49.5849 2.84571 400.506 49.5849 2.84571 400.506
176 1 48.7078 0.603149 401.44 48.7078 0.603149 401.44
179 1 50.436 0.647343 399.669 50.436 0.647343 399.669
181 1 51.9629 3.54151 400.966 51.9629 3.54151 400.966
178 1 50.2319 3.55161 402.85 50.2319 3.55161 402.85
180 1 51.0908 1.34327 401.95 51.0908 1.34327 401.95
183 1 52.8242 1.34306 400.111 52.8242 1.34306 400.111
184 1 53.4593 2.07392 402.439 53.4593 2.07392 402.439
186 1 55.1814 2.10693 400.567 55.1814 2.10693 400.567
187 1 55.8286 2.81276 402.912 55.8286 2.81276 402.912
188 1 56.0324 4.33602 399.73 56.0324 4.33602 399.73
185 1 54.3045 4.2918 401.501 54.3045 4.2918 401.501
182 1 52.5885 4.28017 403.355 52.5885 4.28017 403.355
189 1 56.6874 0.604441 402.011 56.6874 0.604441 402.011
192 1 58.4206 0.604256 400.172 58.4206 0.604256 400.172
194 1 59.9009 3.55299 401.562 59.9009 3.55299 401.562
193 1 59.0559 1.3351 402.5 59.0559 1.3351 402.5
190 1 57.5594 2.80271 401.027 57.5594 2.80271 401.027
191 1 58.1852 3.54134 403.416 58.1852 3.54134 403.416
195 1 60.7777 1.36813 400.628 60.7777 1.36813 400.628
197 1 61.6285 3.59721 399.791 61.6285 3.59721 399.791
199 1 63.1556 2.06386 401.088 63.1556 2.06386 401.088
196 1 61.4252 2.07391 402.972 61.4252 2.07391 402.972
198 1 62.2838 4.29304 402.072 62.2838 4.29304 402.072
200 1 63.7817 2.80247 403.477 63.7817 2.80247 403.477
202 1 64.6522 0.596207 402.56 64.6522 0.596207 402.56
201 1 64.0166 4.29284 400.232 64.0166 4.29284 400.232
206 1 67.2243 2.85828 399.85 67.2243 2.85828 399.85
204 1 66.3737 0.629203 400.688 66.3737 0.629203 400.688
203 1 65.4972 2.8141 401.622 65.4972 2.8141 401.622
205 1 67.0215 1.33491 403.032 67.0215 1.33491 403.032
207 1 67.88 3.554 402.132 67.88 3.554 402.132
209 1 69.6126 3.55369 400.292 69.6126 3.55369 400.292
208 1 68.7516 1.32472 401.147 68.7516 1.32472 401.147
211 1 71.093 2.07461 401.682 71.093 2.07461 401.682
210 1 70.2487 4.28444 402.62 70.2487 4.28444 402.62
212 1 71.9697 4.31709 400.747 71.9697 4.31709 400.747
214 1 72.8187 2.11839 399.909 72.8187 2.11839 399.909
217 1 75.2062 2.8145 400.348 75.2062 2.8145 400.348
216 1 74.3479 0.585676 401.205 74.3479 0.585676 401.205
215 1 73.4757 2.81438 402.19 73.4757 2.81438 402.19
213 1 72.6185 0.595573 403.091 72.6185 0.595573 403.091
218 1 75.8458 3.54104 402.673 75.8458 3.54104 402.673
220 1 77.5706 3.56541 400.795 77.5706 3.56541 400.795
219 1 76.6968 1.32883 401.726 76.6968 1.32883 401.726
222 1 78.4458 1.35962 399.947 78.4458 1.35962 399.947
223 1 79.0664 2.08296 402.251 79.0664 2.08296 402.251
221 1 78.1998 4.28842 403.165 78.1998 4.28842 403.165
224 1 79.9181 4.29532 401.314 79.9181 4.29532 401.314
225 1 80.7937 2.11163 400.379 80.7937 2.11163 400.379
229 1 83.172 2.80645 400.833 83.172 2.80645 400.833
228 1 82.3015 0.607908 401.819 82.3015 0.607908 401.819
226 1 81.4419 2.81627 402.72 81.4419 2.81627 402.72
231 1 84.0324 0.607704 399.977 84.0324 0.607704 399.977
234 1 86.3918 1.37047 400.431 86.3918 1.37047 400.431
233 1 85.5152 3.55577 401.365 85.5152 3.55577 401.365
235 1 87.0408 2.07683 402.775 87.0408 2.07683 402.775
232 1 84.6708 1.33813 402.304 84.6708 1.33813 402.304
230 1 83.8003 3.54428 403.221 83.8003 3.54428 403.221
241 1 90.2686 0.598706 402.362 90.2686 0.598706 402.362
238 1 88.771 2.06614 400.89 88.771 2.06614 400.89
240 1 89.6323 4.2951 400.035 89.6323 4.2951 400.035
237 1 87.8992 4.29574 401.875 87.8992 4.29574 401.875
239 1 89.3981 2.80521 403.279 89.3981 2.80521 403.279
242 1 91.1136 2.81626 401.424 91.1136 2.81626 401.424
243 1 91.9903 0.631157 400.49 91.9903 0.631157 400.49
247 1 94.3687 1.32662 400.95 94.3687 1.32662 400.95
246 1 93.4971 3.55628 401.934 93.4971 3.55628 401.934
244 1 92.6385 1.33748 402.834 92.6385 1.33748 402.834
254 1 98.4369 2.11855 399.713 98.4369 2.11855 399.713
249 1 95.2302 3.5555 400.094 95.2302 3.5555 400.094
253 1 98.2361 0.598041 402.895 98.2361 0.598041 402.895
251 1 96.7104 2.07619 401.485 96.7104 2.07619 401.485
252 1 97.5878 4.31787 400.551 97.5878 4.31787 400.551
250 1 95.8661 4.28661 402.422 95.8661 4.28661 402.422
248 1 94.9955 2.06599 403.339 94.9955 2.06599 403.339
258 1 100.824 2.81124 400.155 100.824 2.81124 400.155
255 1 99.0933 2.81576 401.995 99.0933 2.81576 401.995
259 1 101.459 3.55201 402.488 101.459 3.55201 402.488
260 1 102.302 1.34437 401.559 102.302 1.34437 401.559
256 1 99.9664 0.585007 401.01 99.9664 0.585007 401.01
257 1 100.592 1.33089 403.403 100.592 1.33089 403.403
263 1 104.007 1.38022 399.801 104.007 1.38022 399.801
261 1 103.162 3.58787 400.621 103.162 3.58787 400.621
264 1 104.712 2.07922 402.031 104.712 2.07922 402.031
265 1 105.556 4.27584 401.072 105.556 4.27584 401.072
262 1 103.84 4.28997 402.947 103.84 4.28997 402.947
266 1 106.2 0.588731 403.45 106.2 0.588731 403.45
268 1 -61.9683 3.54181 404.883 -61.9683 3.54181 404.883
271 1 -60.4663 2.05899 406.327 -60.4663 2.05899 406.327
270 1 -61.1103 1.34085 403.936 -61.1103 1.34085 403.936
267 1 -62.8283 1.31981 405.827 -62.8283 1.31981 405.827
272 1 -59.6078 4.28226 405.388 -59.6078 4.28226 405.388
269 1 -61.3276 4.26401 407.27 -61.3276 4.26401 407.27
277 1 -57.2346 0.586119 405.895 -57.2346 0.586119 405.895
274 1 -58.7441 2.07543 404.448 -58.7441 2.07543 404.448
278 1 -56.3637 2.79969 404.956 -56.3637 2.79969 404.956
275 1 -58.0988 2.79442 406.829 -58.0988 2.79442 406.829
276 1 -57.8746 4.28822 403.53 -57.8746 4.28822 403.53
279 1 -55.7282 3.5247 407.333 -55.7282 3.5247 407.333
280 1 -55.4957 0.586215 404.027 -55.4957 0.586215 404.027
286 1 -52.2658 3.53444 403.572 -52.2658 3.53444 403.572
282 1 -53.9935 3.52941 405.458 -53.9935 3.52941 405.458
284 1 -53.1269 1.32106 404.528 -53.1269 1.32106 404.528
281 1 -54.8617 1.31393 406.399 -54.8617 1.31393 406.399
285 1 -52.4928 2.04789 406.903 -52.4928 2.04789 406.903
291 1 -49.262 0.577695 406.465 -49.262 0.577695 406.465
288 1 -50.7642 2.06021 405.027 -50.7642 2.06021 405.027
292 1 -48.3988 2.79939 405.526 -48.3988 2.79939 405.526
287 1 -51.6286 4.26563 405.961 -51.6286 4.26563 405.961
290 1 -49.9047 4.27864 404.084 -49.9047 4.27864 404.084
294 1 -47.5335 0.593655 404.589 -47.5335 0.593655 404.589
297 1 -46.0311 3.53383 406.028 -46.0311 3.53383 406.028
296 1 -46.6731 2.81119 403.651 -46.6731 2.81119 403.651
298 1 -45.1668 1.32575 405.086 -45.1668 1.32575 405.086
295 1 -46.8944 1.31416 406.966 -46.8944 1.31416 406.966
300 1 -44.3022 3.54581 404.156 -44.3022 3.54581 404.156
306 1 -41.0723 2.07005 403.709 -41.0723 2.07005 403.709
302 1 -42.7985 2.05911 405.586 -42.7985 2.05911 405.586
304 1 -41.931 4.28043 404.648 -41.931 4.28043 404.648
301 1 -43.6613 4.26823 406.528 -43.6613 4.26823 406.528
305 1 -41.2937 0.574756 407.027 -41.2937 0.574756 407.027
307 1 -40.4308 2.79391 406.089 -40.4308 2.79391 406.089
310 1 -38.7026 2.80658 404.215 -38.7026 2.80658 404.215
312 1 -37.1988 1.32014 405.646 -37.1988 1.32014 405.646
311 1 -38.0616 3.52901 406.589 -38.0616 3.52901 406.589
308 1 -39.5662 0.586136 405.146 -39.5662 0.586136 405.146
313 1 -36.3315 3.54139 404.709 -36.3315 3.54139 404.709
315 1 -35.4724 1.33086 403.771 -35.4724 1.33086 403.771
316 1 -34.8313 2.05496 406.15 -34.8313 2.05496 406.15
317 1 -33.9666 4.27449 405.208 -33.9666 4.27449 405.208
314 1 -35.6942 4.26328 407.088 -35.6942 4.26328 407.088
319 1 -33.1027 2.06736 404.277 -33.1027 2.06736 404.277
320 1 -32.462 2.78998 406.651 -32.462 2.78998 406.651
324 1 -29.8724 0.591594 403.833 -29.8724 0.591594 403.833
321 1 -31.5991 0.580998 405.709 -31.5991 0.580998 405.709
322 1 -30.7316 2.80217 404.772 -30.7316 2.80217 404.772
323 1 -30.0946 3.52417 407.151 -30.0946 3.52417 407.151
325 1 -29.2316 1.31577 406.213 -29.2316 1.31577 406.213
328 1 -27.5029 1.32806 404.34 -27.5029 1.32806 404.34
326 1 -28.3668 3.53524 405.271 -28.3668 3.53524 405.271
329 1 -26.8624 2.05073 406.714 -26.8624 2.05073 406.714
330 1 -25.9994 4.26914 405.772 -25.9994 4.26914 405.772
331 1 -25.1319 2.06281 404.835 -25.1319 2.06281 404.835
337 1 -21.9031 0.588539 404.404 -21.9031 0.588539 404.404
334 1 -23.6318 0.576387 406.276 -23.6318 0.576387 406.276
335 1 -22.7671 2.79577 405.334 -22.7671 2.79577 405.334
333 1 -24.2726 4.27964 403.897 -24.2726 4.27964 403.897
338 1 -21.2626 1.31121 406.777 -21.2626 1.31121 406.777
332 1 -24.495 2.78485 407.214 -24.495 2.78485 407.214
340 1 -19.5319 1.32314 404.898 -19.5319 1.32314 404.898
342 1 -18.673 3.53982 403.96 -18.673 3.53982 403.96
339 1 -20.3997 3.52952 405.835 -20.3997 3.52952 405.835
344 1 -17.1665 2.05513 405.396 -17.1665 2.05513 405.396
343 1 -18.0322 4.26357 406.339 -18.0322 4.26357 406.339
341 1 -18.8952 2.04491 407.277 -18.8952 2.04491 407.277
347 1 -15.6656 0.572082 406.843 -15.6656 0.572082 406.843
349 1 -14.8025 2.79065 405.901 -14.8025 2.79065 405.901
346 1 -16.3031 4.27467 404.465 -16.3031 4.27467 404.465
350 1 -13.9384 0.584685 404.967 -13.9384 0.584685 404.967
351 1 -13.299 1.30928 407.346 -13.299 1.30928 407.346
353 1 -12.4356 3.52926 406.406 -12.4356 3.52926 406.406
352 1 -13.0781 2.80239 404.026 -13.0781 2.80239 404.026
354 1 -11.5722 1.32308 405.468 -11.5722 1.32308 405.468
356 1 -10.7061 3.54441 404.532 -10.7061 3.54441 404.532
358 1 -9.84517 1.33412 403.595 -9.84517 1.33412 403.595
357 1 -10.0677 4.26521 406.91 -10.0677 4.26521 406.91
363 1 -6.83418 2.79136 406.474 -6.83418 2.79136 406.474
359 1 -9.20401 2.05715 405.973 -9.20401 2.05715 405.973
362 1 -7.47412 2.06868 404.102 -7.47412 2.06868 404.102
360 1 -8.33921 4.27628 405.031 -8.33921 4.27628 405.031
364 1 -5.97092 0.582086 405.533 -5.97092 0.582086 405.533
368 1 -4.24391 0.592842 403.658 -4.24391 0.592842 403.658
366 1 -5.10305 2.80328 404.596 -5.10305 2.80328 404.596
369 1 -3.60347 1.31689 406.037 -3.60347 1.31689 406.037
367 1 -4.46665 3.52527 406.975 -4.46665 3.52527 406.975
370 1 -2.73862 3.53652 405.095 -2.73862 3.53652 405.095
372 1 -1.8747 1.32951 404.165 -1.8747 1.32951 404.165
376 1 0.495902 2.06451 404.661 0.495902 2.06451 404.661
373 1 -1.23463 2.05206 406.539 -1.23463 2.05206 406.539
374 1 -0.371619 4.27067 405.597 -0.371619 4.27067 405.597
379 1 1.99534 0.578226 406.103 1.99534 0.578226 406.103
378 1 1.35524 4.28153 403.723 1.35524 4.28153 403.723
377 1 1.13225 2.78647 407.04 1.13225 2.78647 407.04
383 1 4.36389 1.31347 406.605 4.36389 1.31347 406.605
380 1 2.86012 2.79785 405.161 2.86012 2.79785 405.161
382 1 3.72411 0.590847 404.23 3.72411 0.590847 404.23
384 1 5.22688 3.53209 405.663 5.22688 3.53209 405.663
385 1 6.09439 1.32597 404.726 6.09439 1.32597 404.726
387 1 6.95369 3.54306 403.788 6.95369 3.54306 403.788
388 1 7.59358 4.26716 406.169 7.59358 4.26716 406.169
386 1 6.73053 2.04793 407.106 6.73053 2.04793 407.106
389 1 8.4583 2.05936 405.227 8.4583 2.05936 405.227
391 1 9.32219 4.27986 404.296 9.32219 4.27986 404.296
392 1 9.96188 0.574981 406.671 9.96188 0.574981 406.671
393 1 10.8248 2.79364 405.729 10.8248 2.79364 405.729
394 1 11.6922 0.587551 404.792 11.6922 0.587551 404.792
396 1 12.5513 2.80469 403.854 12.5513 2.80469 403.854
397 1 13.1912 3.5287 406.235 13.1912 3.5287 406.235
395 1 12.3283 1.30945 407.172 12.3283 1.30945 407.172
398 1 14.0558 1.32091 405.292 14.0558 1.32091 405.292
400 1 14.9196 3.54143 404.362 14.9196 3.54143 404.362
401 1 15.5593 4.26392 406.737 15.5593 4.26392 406.737
402 1 16.4221 2.05513 405.795 16.4221 2.05513 405.795
403 1 17.2893 4.27649 404.858 17.2893 4.27649 404.858
405 1 18.1483 2.06617 403.919 18.1483 2.06617 403.919
406 1 18.7884 2.79008 406.3 18.7884 2.79008 406.3
409 1 20.5165 2.80273 404.427 20.5165 2.80273 404.427
410 1 21.1565 3.5251 406.801 21.1565 3.5251 406.801
407 1 19.6528 0.582244 405.357 19.6528 0.582244 405.357
404 1 17.9256 0.570845 407.238 17.9256 0.570845 407.238
412 1 22.8864 3.53755 404.922 22.8864 3.53755 404.922
411 1 22.0191 1.31623 405.859 22.0191 1.31623 405.859
415 1 24.3855 2.05042 406.363 24.3855 2.05042 406.363
414 1 23.7449 1.32708 403.983 23.7449 1.32708 403.983
416 1 25.2506 4.26966 405.42 25.2506 4.26966 405.42
413 1 23.5229 4.25897 407.302 23.5229 4.25897 407.302
418 1 26.1135 2.062 404.488 26.1135 2.062 404.488
419 1 26.7509 2.7865 406.867 26.7509 2.7865 406.867
420 1 26.9753 4.27463 403.534 26.9753 4.27463 403.534
421 1 27.6135 0.577887 405.925 27.6135 0.577887 405.925
422 1 28.477 2.79963 404.99 28.477 2.79963 404.99
424 1 29.3368 0.590196 404.049 29.3368 0.590196 404.049
426 1 30.8423 3.53801 405.492 30.8423 3.53801 405.492
425 1 29.9795 1.31651 406.43 29.9795 1.31651 406.43
430 1 32.568 3.54955 403.617 32.568 3.54955 403.617
428 1 31.7077 1.3321 404.555 31.7077 1.3321 404.555
429 1 32.3465 2.05238 406.933 32.3465 2.05238 406.933
432 1 34.0737 2.06389 405.053 34.0737 2.06389 405.053
431 1 33.2095 4.27199 405.995 33.2095 4.27199 405.995
435 1 35.5785 0.578627 406.496 35.5785 0.578627 406.496
436 1 36.4411 2.79704 405.554 36.4411 2.79704 405.554
434 1 34.938 4.28398 404.123 34.938 4.28398 404.123
440 1 38.1668 2.80821 403.677 38.1668 2.80821 403.677
438 1 37.3083 0.590983 404.616 37.3083 0.590983 404.616
439 1 37.9454 1.31236 406.996 37.9454 1.31236 406.996
442 1 39.6721 1.32399 405.115 39.6721 1.32399 405.115
441 1 38.8079 3.53163 406.057 38.8079 3.53163 406.057
444 1 40.5353 3.54461 404.184 40.5353 3.54461 404.184
446 1 42.0385 2.0579 405.615 42.0385 2.0579 405.615
445 1 41.1762 4.26656 406.558 41.1762 4.26656 406.558
450 1 43.764 2.06909 403.739 43.764 2.06909 403.739
451 1 44.4051 2.79262 406.119 44.4051 2.79262 406.119
448 1 42.9053 4.27936 404.678 42.9053 4.27936 404.678
449 1 43.5427 0.573242 407.058 43.5427 0.573242 407.058
452 1 45.2692 0.584938 405.176 45.2692 0.584938 405.176
454 1 46.1325 2.80553 404.245 46.1325 2.80553 404.245
457 1 48.5025 3.54035 404.74 48.5025 3.54035 404.74
455 1 46.7734 3.52755 406.62 46.7734 3.52755 406.62
456 1 47.6357 1.31888 405.677 47.6357 1.31888 405.677
459 1 49.3611 1.33012 403.801 49.3611 1.33012 403.801
458 1 49.1398 4.26171 407.119 49.1398 4.26171 407.119
460 1 50.0022 2.05365 406.181 50.0022 2.05365 406.181
463 1 51.7294 2.0666 404.307 51.7294 2.0666 404.307
461 1 50.8662 4.27343 405.238 50.8662 4.27343 405.238
464 1 52.3704 2.78862 406.681 52.3704 2.78862 406.681
465 1 53.2327 0.579969 405.739 53.2327 0.579969 405.739
468 1 54.9579 0.59126 403.862 54.9579 0.59126 403.862
466 1 54.0994 2.80146 404.801 54.0994 2.80146 404.801
469 1 55.5992 1.31476 406.242 55.5992 1.31476 406.242
467 1 54.7369 3.52282 407.181 54.7369 3.52282 407.181
470 1 56.4631 3.53456 405.299 56.4631 3.53456 405.299
472 1 57.3262 1.32774 404.368 57.3262 1.32774 404.368
475 1 59.6961 2.06262 404.862 59.6961 2.06262 404.862
473 1 57.9674 2.04977 406.742 57.9674 2.04977 406.742
474 1 58.8295 4.26857 405.8 58.8295 4.26857 405.8
477 1 60.5545 4.27987 403.923 60.5545 4.27987 403.923
481 1 62.9228 0.588885 404.429 62.9228 0.588885 404.429
478 1 61.196 0.57593 406.303 61.196 0.57593 406.303
479 1 62.0599 2.79572 405.36 62.0599 2.79572 405.36
482 1 63.5643 1.31093 406.803 63.5643 1.31093 406.803
476 1 60.3338 2.78399 407.242 60.3338 2.78399 407.242
483 1 64.4263 3.52972 405.86 64.4263 3.52972 405.86
486 1 66.1511 3.54094 403.983 66.1511 3.54094 403.983
488 1 67.6566 2.05675 405.42 67.6566 2.05675 405.42
484 1 65.2928 1.32372 404.922 65.2928 1.32372 404.922
487 1 66.7929 4.26449 406.363 66.7929 4.26449 406.363
485 1 65.9308 2.04513 407.302 65.9308 2.04513 407.302
490 1 68.5195 4.27732 404.489 68.5195 4.27732 404.489
493 1 70.0231 2.79061 405.92 70.0231 2.79061 405.92
491 1 69.1613 0.571933 406.863 69.1613 0.571933 406.863
494 1 70.8898 0.584557 404.982 70.8898 0.584557 404.982
492 1 69.3781 2.06332 403.536 69.3781 2.06332 403.536
496 1 71.7476 2.8016 404.042 71.7476 2.8016 404.042
497 1 72.3899 3.52474 406.422 72.3899 3.52474 406.422
500 1 74.1167 3.53645 404.545 74.1167 3.53645 404.545
498 1 73.2544 1.31661 405.477 73.2544 1.31661 405.477
502 1 74.9779 1.32165 403.59 74.9779 1.32165 403.59
501 1 74.7558 4.2608 406.924 74.7558 4.2608 406.924
503 1 75.6178 2.05226 405.98 75.6178 2.05226 405.98
506 1 77.3399 2.06463 404.103 77.3399 2.06463 404.103
507 1 77.9842 2.79094 406.484 77.9842 2.79094 406.484
504 1 76.4807 4.27405 405.045 76.4807 4.27405 405.045
508 1 78.8465 0.585025 405.545 78.8465 0.585025 405.545
510 1 79.7113 2.8066 404.607 79.7113 2.8066 404.607
512 1 80.571 0.596577 403.669 80.571 0.596577 403.669
514 1 82.0778 3.53847 405.104 82.0778 3.53847 405.104
516 1 82.9417 1.33108 404.173 82.9417 1.33108 404.173
513 1 81.2142 1.31912 406.047 81.2142 1.31912 406.047
511 1 80.3517 3.52694 406.985 80.3517 3.52694 406.985
517 1 83.5838 2.05338 406.546 83.5838 2.05338 406.546
523 1 86.8131 0.579106 406.105 86.8131 0.579106 406.105
520 1 85.3125 2.06565 404.665 85.3125 2.06565 404.665
518 1 84.4458 4.27175 405.603 84.4458 4.27175 405.603
522 1 86.1704 4.28279 403.726 86.1704 4.28279 403.726
521 1 85.9511 2.78735 407.044 85.9511 2.78735 407.044
526 1 88.5395 0.591873 404.231 88.5395 0.591873 404.231
528 1 90.0438 3.53298 405.662 90.0438 3.53298 405.662
524 1 87.6768 2.79883 405.162 87.6768 2.79883 405.162
529 1 90.9101 1.32679 404.724 90.9101 1.32679 404.724
527 1 89.182 1.31434 406.604 89.182 1.31434 406.604
536 1 94.7801 0.576349 406.664 94.7801 0.576349 406.664
531 1 91.7681 3.54375 403.785 91.7681 3.54375 403.785
533 1 93.2744 2.06016 405.221 93.2744 2.06016 405.221
532 1 92.411 4.26812 406.164 92.411 4.26812 406.164
535 1 94.1372 4.28041 404.29 94.1372 4.28041 404.29
530 1 91.5491 2.04895 407.103 91.5491 2.04895 407.103
538 1 96.508 0.588374 404.784 96.508 0.588374 404.784
541 1 98.0092 3.53145 406.224 98.0092 3.53145 406.224
540 1 97.3656 2.8049 403.845 97.3656 2.8049 403.845
537 1 95.6417 2.7948 405.721 95.6417 2.7948 405.721
539 1 97.1477 1.31203 407.162 97.1477 1.31203 407.162
546 1 101.245 2.05893 405.776 101.245 2.05893 405.776
544 1 99.7339 3.54448 404.352 99.7339 3.54448 404.352
542 1 98.8724 1.32387 405.282 98.8724 1.32387 405.282
547 1 102.111 4.28038 404.839 102.111 4.28038 404.839
545 1 100.381 4.26742 406.72 100.381 4.26742 406.72
553 1 105.34 2.8029 404.393 105.34 2.8029 404.393
550 1 103.614 2.79156 406.274 103.614 2.79156 406.274
554 1 105.981 3.52697 406.77 105.981 3.52697 406.77
549 1 102.975 2.07015 403.894 102.975 2.07015 403.894
551 1 104.477 0.583418 405.331 104.477 0.583418 405.331
548 1 102.751 0.572742 407.215 102.751 0.572742 407.215
560 1 -60.6858 0.558655 409.651 -60.6858 0.558655 409.651
558 1 -62.189 2.04281 408.211 -62.189 2.04281 408.211
562 1 -59.8233 2.77964 408.71 -59.8233 2.77964 408.71
559 1 -61.5483 2.76552 410.592 -61.5483 2.76552 410.592
556 1 -63.0518 4.24981 409.152 -63.0518 4.24981 409.152
273 1 -58.9619 0.57356 407.77 -58.9619 0.57356 407.77
565 1 -57.4567 3.51459 409.211 -57.4567 3.51459 409.211
568 1 -55.9525 2.02907 410.653 -55.9525 2.02907 410.653
567 1 -56.5936 1.30696 408.273 -56.5936 1.30696 408.273
564 1 -58.3195 1.29429 410.152 -58.3195 1.29429 410.152
563 1 -59.182 3.50124 411.092 -59.182 3.50124 411.092
573 1 -52.7203 0.555081 410.217 -52.7203 0.555081 410.217
571 1 -54.2244 2.03952 408.777 -54.2244 2.03952 408.777
283 1 -53.3588 4.25697 407.838 -53.3588 4.25697 407.838
569 1 -55.0889 4.24833 409.714 -55.0889 4.24833 409.714
574 1 -51.8553 2.77395 409.28 -51.8553 2.77395 409.28
572 1 -53.5846 2.76363 411.156 -53.5846 2.76363 411.156
576 1 -50.9905 0.565046 408.341 -50.9905 0.565046 408.341
578 1 -49.4869 3.50931 409.782 -49.4869 3.50931 409.782
289 1 -50.1256 2.78513 407.404 -50.1256 2.78513 407.404
580 1 -48.6226 1.30131 408.844 -48.6226 1.30131 408.844
577 1 -50.3517 1.28995 410.72 -50.3517 1.28995 410.72
293 1 -47.7585 3.52143 407.905 -47.7585 3.52143 407.905
299 1 -44.5261 2.04826 407.465 -44.5261 2.04826 407.465
583 1 -46.2543 2.03653 409.344 -46.2543 2.03653 409.344
585 1 -45.3902 4.25622 408.405 -45.3902 4.25622 408.405
582 1 -47.1186 4.24437 410.283 -47.1186 4.24437 410.283
586 1 -44.7505 0.551494 410.783 -44.7505 0.551494 410.783
589 1 -43.0221 0.563142 408.905 -43.0221 0.563142 408.905
591 1 -41.5184 3.50539 410.344 -41.5184 3.50539 410.344
303 1 -42.1584 2.78235 407.966 -42.1584 2.78235 407.966
587 1 -43.8864 2.77095 409.844 -43.8864 2.77095 409.844
592 1 -40.6541 1.2975 409.405 -40.6541 1.2975 409.405