ITEM: TIMESTEP
0
ITEM: NUMBER OF ATOMS
4630
ITEM: BOX BOUNDS xy xz yz pp pp pp
-6.4192894134173557e+01 1.0721192598237356e+02 0.0000000000000000e+00
0.0000000000000000e+00 4.4274527100805940e+00 0.0000000000000000e+00
3.8000000000000000e+02 5.0000000000000000e+02 0.0000000000000000e+00
ITEM: ATOMS id type x y z xu yu zu
27 1 -46.2509 1.94322 399.776 -46.2509 1.94322 399.776
36 1 -40.5945 1.20283 399.835 -40.5945 1.20283 399.835
31 1 -43.8497 2.64206 400.214 -43.8497 2.64206 400.214
22 1 -49.4795 3.39514 400.178 -49.4795 3.39514 400.178
20 1 -50.3745 1.17222 401.017 -50.3745 1.17222 401.017
40 1 -38.195 1.90275 400.275 -38.195 1.90275 400.275
34 1 -41.4663 3.40105 400.662 -41.4663 3.40105 400.662
17 1 -52.762 0.423007 400.574 -52.762 0.423007 400.574
9 1 -58.3883 1.11716 400.482 -58.3883 1.11716 400.482
43 1 -35.8122 2.66255 400.724 -35.8122 2.66255 400.724
12 1 -56.0296 1.92162 400.96 -56.0296 1.92162 400.96
5 1 -60.782 0.431168 400.02 -60.782 0.431168 400.02
29 1 -44.7189 0.413495 401.063 -44.7189 0.413495 401.063
853 1 -57.8302 2.6307 415.055 -57.8302 2.6307 415.055
873 1 -46.5178 1.15567 415.19 -46.5178 1.15567 415.19
865 1 -50.6572 0.416914 416.554 -50.6572 0.416914 416.554
1174 1 -37.8252 1.88934 418.117 -37.8252 1.88934 418.117
883 1 -40.8608 0.416818 415.255 -40.8608 0.416818 415.255
863 1 -52.1755 1.89429 415.122 -52.1755 1.89429 415.122
315 1 -36.0401 1.16684 403.997 -36.0401 1.16684 403.997
307 1 -41.0473 2.64056 406.301 -41.0473 2.64056 406.301
1150 1 -52.4034 0.414503 418.419 -52.4034 0.414503 418.419
855 1 -56.3124 1.15365 416.487 -56.3124 1.15365 416.487
310 1 -39.3008 2.64475 404.441 -39.3008 2.64475 404.441
871 1 -47.3917 3.36865 416.122 -47.3917 3.36865 416.122
16 1 -53.6319 2.6214 401.424 -53.6319 2.6214 401.424
309 1 -39.5288 1.16322 407.73 -39.5288 1.16322 407.73
1156 1 -49.1388 3.36688 417.986 -49.1388 3.36688 417.986
867 1 -49.7837 2.63159 415.622 -49.7837 2.63159 415.622
1159 1 -46.7471 4.104 418.485 -46.7471 4.104 418.485
1168 1 -41.0901 3.36511 418.551 -41.0901 3.36511 418.551
1170 1 -40.2165 1.15221 417.619 -40.2165 1.15221 417.619
594 1 -40.4022 3.37578 408.664 -40.4022 3.37578 408.664
37 1 -39.945 1.91023 402.103 -39.945 1.91023 402.103
851 1 -58.7027 0.415332 415.988 -58.7027 0.415332 415.988
857 1 -55.4397 3.36893 415.555 -55.4397 3.36893 415.555
592 1 -41.2754 1.16105 409.596 -41.2754 1.16105 409.596
849 1 -59.5753 2.62749 416.922 -59.5753 2.62749 416.922
877 1 -44.126 1.89266 415.689 -44.126 1.89266 415.689
1143 1 -57.185 3.36583 417.42 -57.185 3.36583 417.42
1140 1 -58.9302 3.36282 419.287 -58.9302 3.36282 419.287
845 1 -61.9655 1.88914 416.423 -61.9655 1.88914 416.423
875 1 -44.9998 4.10561 416.621 -44.9998 4.10561 416.621
886 1 -39.1138 0.418676 413.39 -39.1138 0.418676 413.39
891 1 -35.8494 3.37073 412.956 -35.8494 3.37073 412.956
39 1 -38.4321 0.42476 403.493 -38.4321 0.42476 403.493
1177 1 -36.3074 0.411881 419.548 -36.3074 0.411881 419.548
1167 1 -41.9637 1.15056 419.483 -41.9637 1.15056 419.483
8 1 -59.267 3.37084 401.434 -59.267 3.37084 401.434
869 1 -48.2654 1.1541 417.054 -48.2654 1.1541 417.054
1136 1 -61.3206 2.62456 418.788 -61.3206 2.62456 418.788
1162 1 -45.2289 2.62644 419.917 -45.2289 2.62644 419.917
15 1 -54.508 0.42814 402.405 -54.508 0.42814 402.405
280 1 -56.2595 0.422296 404.243 -56.2595 0.422296 404.243
277 1 -58.0194 0.431961 406.097 -58.0194 0.431961 406.097
273 1 -59.7679 0.428919 407.956 -59.7679 0.428919 407.956
560 1 -61.5108 0.422688 409.824 -61.5108 0.422688 409.824
557 1 -63.2551 0.418468 411.692 -63.2551 0.418468 411.692
26 1 -46.4672 0.433467 402.935 -46.4672 0.433467 402.935
294 1 -48.2183 0.432565 404.808 -48.2183 0.432565 404.808
291 1 -49.9663 0.42527 406.669 -49.9663 0.42527 406.669
576 1 -51.7142 0.422369 408.532 -51.7142 0.422369 408.532
573 1 -53.4641 0.422462 410.394 -53.4641 0.422462 410.394
570 1 -55.2121 0.421434 412.257 -55.2121 0.421434 412.257
854 1 -56.9577 0.418605 414.122 -56.9577 0.418605 414.122
305 1 -41.9192 0.426134 407.233 -41.9192 0.426134 407.233
589 1 -43.6666 0.424023 409.099 -43.6666 0.424023 409.099
586 1 -45.4141 0.421896 410.963 -45.4141 0.421896 410.963
872 1 -47.1619 0.42012 412.827 -47.1619 0.42012 412.827
599 1 -37.367 0.420785 411.525 -37.367 0.420785 411.525
1132 1 -63.711 1.88641 418.29 -63.711 1.88641 418.29
4 1 -61.0663 3.40038 403.216 -61.0663 3.40038 403.216
268 1 -62.8024 3.38057 405.082 -62.8024 3.38057 405.082
1152 1 -51.5304 2.6295 417.486 -51.5304 2.6295 417.486
19 1 -51.2586 3.36599 401.936 -51.2586 3.36599 401.936
286 1 -52.9958 3.36804 403.792 -52.9958 3.36804 403.792
282 1 -54.7438 3.37317 405.666 -54.7438 3.37317 405.666
279 1 -56.4994 3.37782 407.527 -56.4994 3.37782 407.527
565 1 -58.2487 3.37742 409.39 -58.2487 3.37742 409.39
563 1 -59.9932 3.37312 411.257 -59.9932 3.37312 411.257
846 1 -61.7377 3.36917 413.124 -61.7377 3.36917 413.124
32 1 -43.2046 3.37915 402.525 -43.2046 3.37915 402.525
300 1 -44.9542 3.38271 404.38 -44.9542 3.38271 404.38
297 1 -46.7029 3.37983 406.238 -46.7029 3.37983 406.238
293 1 -48.4494 3.37677 408.101 -48.4494 3.37677 408.101
578 1 -50.1972 3.3742 409.965 -50.1972 3.3742 409.965
575 1 -51.9462 3.37313 411.827 -51.9462 3.37313 411.827
860 1 -53.6938 3.3716 413.69 -53.6938 3.3716 413.69
591 1 -42.1491 3.37367 410.529 -42.1491 3.37367 410.529
588 1 -43.8963 3.3718 412.394 -43.8963 3.3718 412.394
874 1 -45.644 3.37014 414.258 -45.644 3.37014 414.258
10 1 -57.769 1.88662 402.821 -57.769 1.88662 402.821
274 1 -59.5425 1.91358 404.658 -59.5425 1.91358 404.658
271 1 -61.2865 1.90642 406.52 -61.2865 1.90642 406.52
558 1 -63.0276 1.89881 408.391 -63.0276 1.89881 408.391
24 1 -48.003 1.90055 401.53 -48.003 1.90055 401.53
21 1 -49.7417 1.90633 403.371 -49.7417 1.90633 403.371
288 1 -51.4809 1.90059 405.24 -51.4809 1.90059 405.24
285 1 -53.2298 1.89826 407.103 -53.2298 1.89826 407.103
571 1 -54.982 1.89973 408.962 -54.982 1.89973 408.962
568 1 -56.7304 1.89916 410.824 -56.7304 1.89916 410.824
852 1 -58.4756 1.89585 412.69 -58.4756 1.89585 412.69
848 1 -60.2203 1.89228 414.556 -60.2203 1.89228 414.556
306 1 -41.6935 1.90467 403.936 -41.6935 1.90467 403.936
302 1 -43.4376 1.90289 405.8 -43.4376 1.90289 405.8
299 1 -45.1843 1.90176 407.667 -45.1843 1.90176 407.667
583 1 -46.9316 1.89946 409.532 -46.9316 1.89946 409.532
581 1 -48.6797 1.89733 411.396 -48.6797 1.89733 411.396
866 1 -50.4281 1.89598 413.259 -50.4281 1.89598 413.259
880 1 -42.3786 1.89431 413.825 -42.3786 1.89431 413.825
312 1 -37.7836 1.16513 405.862 -37.7836 1.16513 405.862
2 1 -62.5975 0.449513 401.782 -62.5975 0.449513 401.782
13 1 -55.3769 2.63643 403.298 -55.3769 2.63643 403.298
278 1 -57.1373 2.64041 405.166 -57.1373 2.64041 405.166
275 1 -58.8947 2.64519 407.023 -58.8947 2.64519 407.023
562 1 -60.639 2.63932 408.889 -60.639 2.63932 408.889
559 1 -62.3826 2.63409 410.758 -62.3826 2.63409 410.758
1166 1 -42.8372 3.36346 420.416 -42.8372 3.36346 420.416
889 1 -36.7227 1.15595 413.888 -36.7227 1.15595 413.888
28 1 -45.5971 2.64824 402.044 -45.5971 2.64824 402.044
296 1 -47.3488 2.64492 403.875 -47.3488 2.64492 403.875
292 1 -49.0935 2.64258 405.737 -49.0935 2.64258 405.737
289 1 -50.8394 2.63765 407.602 -50.8394 2.63765 407.602
574 1 -52.589 2.63635 409.464 -52.589 2.63635 409.464
572 1 -54.3385 2.63604 411.326 -54.3385 2.63604 411.326
856 1 -56.0851 2.63392 413.189 -56.0851 2.63392 413.189
303 1 -42.7934 2.63837 408.165 -42.7934 2.63837 408.165
587 1 -44.5404 2.63658 410.03 -44.5404 2.63658 410.03
584 1 -46.2879 2.63466 411.895 -46.2879 2.63466 411.895
870 1 -48.0359 2.6331 413.759 -48.0359 2.6331 413.759
6 1 -60.1756 1.17932 402.302 -60.1756 1.17932 402.302
270 1 -61.9351 1.17604 404.143 -61.9351 1.17604 404.143
267 1 -63.6712 1.16328 406.022 -63.6712 1.16328 406.022
890 1 -36.0783 1.89122 416.252 -36.0783 1.89122 416.252
18 1 -52.1171 1.15667 402.884 -52.1171 1.15667 402.884
284 1 -53.8672 1.16055 404.744 -53.8672 1.16055 404.744
281 1 -55.6225 1.16215 406.601 -55.6225 1.16215 406.601
567 1 -57.3754 1.16506 408.459 -57.3754 1.16506 408.459
564 1 -59.1212 1.16168 410.323 -59.1212 1.16168 410.323
561 1 -60.8654 1.15731 412.191 -60.8654 1.15731 412.191
844 1 -62.6103 1.15379 414.058 -62.6103 1.15379 414.058
33 1 -42.3522 1.16312 401.585 -42.3522 1.16312 401.585
30 1 -44.085 1.16256 403.433 -44.085 1.16256 403.433
298 1 -45.8287 1.16728 405.303 -45.8287 1.16728 405.303
295 1 -47.5757 1.16494 407.17 -47.5757 1.16494 407.17
580 1 -49.3231 1.16133 409.033 -49.3231 1.16133 409.033
577 1 -51.0718 1.15972 410.896 -51.0718 1.15972 410.896
862 1 -52.8203 1.15875 412.758 -52.8203 1.15875 412.758
590 1 -43.0226 1.15905 411.461 -43.0226 1.15905 411.461
876 1 -44.7701 1.15722 413.326 -44.7701 1.15722 413.326
1163 1 -44.3553 0.41356 418.984 -44.3553 0.41356 418.984
1153 1 -50.8852 3.3646 419.851 -50.8852 3.3646 419.851
311 1 -38.6553 3.3788 406.799 -38.6553 3.3788 406.799
42 1 -36.6986 0.424455 401.647 -36.6986 0.424455 401.647
1135 1 -62.1933 0.409472 419.721 -62.1933 0.409472 419.721
1171 1 -39.5722 1.88761 419.982 -39.5722 1.88761 419.982
1139 1 -59.8029 1.14766 420.22 -59.8029 1.14766 420.22
601 1 -36.4939 2.63558 410.592 -36.4939 2.63558 410.592
313 1 -36.9072 3.38215 404.932 -36.9072 3.38215 404.932
858 1 -54.5669 1.15662 414.622 -54.5669 1.15662 414.622
868 1 -48.9099 0.418677 414.691 -48.9099 0.418677 414.691
1147 1 -54.7944 4.10403 417.92 -54.7944 4.10403 417.92
843 1 -63.483 3.36602 414.991 -63.483 3.36602 414.991
593 1 -40.6314 1.89617 411.96 -40.6314 1.89617 411.96
308 1 -40.1735 0.428537 405.364 -40.1735 0.428537 405.364
861 1 -53.0487 4.10684 416.054 -53.0487 4.10684 416.054
1158 1 -47.6205 1.88935 419.418 -47.6205 1.88935 419.418
884 1 -39.9872 2.63145 414.323 -39.9872 2.63145 414.323
881 1 -41.7344 2.6297 416.188 -41.7344 2.6297 416.188
885 1 -39.343 3.3668 416.686 -39.343 3.3668 416.686
859 1 -53.9216 1.89175 416.987 -53.9216 1.89175 416.987
596 1 -38.8847 1.89819 410.094 -38.8847 1.89819 410.094
879 1 -42.6081 0.415154 417.12 -42.6081 0.415154 417.12
1172 1 -38.6987 4.10219 419.05 -38.6987 4.10219 419.05
1154 1 -50.0121 1.15208 418.918 -50.0121 1.15208 418.918
887 1 -38.4695 1.15398 415.754 -38.4695 1.15398 415.754
597 1 -38.2404 2.6334 412.458 -38.2404 2.6334 412.458
1161 1 -45.8735 1.89111 417.553 -45.8735 1.89111 417.553
1138 1 -60.4479 0.412261 417.855 -60.4479 0.412261 417.855
1149 1 -53.2763 2.62686 419.351 -53.2763 2.62686 419.351
41 1 -37.5514 2.64092 402.586 -37.5514 2.64092 402.586
888 1 -37.5961 3.36866 414.821 -37.5961 3.36866 414.821
1165 1 -43.4817 2.62809 418.052 -43.4817 2.62809 418.052
1141 1 -58.0576 1.15057 418.353 -58.0576 1.15057 418.353
1145 1 -55.6671 1.88881 418.852 -55.6671 1.88881 418.852
600 1 -37.1387 1.9004 408.228 -37.1387 1.9004 408.228
1148 1 -54.1491 0.411715 420.284 -54.1491 0.411715 420.284
882 1 -41.505 4.10892 412.892 -41.505 4.10892 412.892
1157 1 -48.4938 4.10204 420.35 -48.4938 4.10204 420.35
1144 1 -56.5398 4.10106 419.785 -56.5398 4.10106 419.785
602 1 -35.6206 0.423178 409.659 -35.6206 0.423178 409.659
1131 1 -63.9389 0.406918 421.587 -63.9389 0.406918 421.587
1755 1 -36.1203 2.61615 428.504 -36.1203 2.61615 428.504
1460 1 -40.6745 2.62122 424.21 -40.6745 2.62122 424.21
2308 1 -50.506 3.34317 437.767 -50.506 3.34317 437.767
2316 1 -45.4963 1.87049 435.467 -45.4963 1.87049 435.467
2312 1 -48.1152 4.08073 438.265 -48.1152 4.08073 438.265
1464 1 -38.2831 3.35832 424.709 -38.2831 3.35832 424.709
1461 1 -39.8011 0.408386 423.278 -39.8011 0.408386 423.278
2039 1 -38.9682 3.34747 434.598 -38.9682 3.34747 434.598
2613 1 -40.9424 1.86571 439.76 -40.9424 1.86571 439.76
1467 1 -35.8917 4.09545 425.208 -35.8917 4.09545 425.208
2603 1 -46.5972 2.60336 439.696 -46.5972 2.60336 439.696
1443 1 -50.24 4.09968 422.215 -50.24 4.09968 422.215
1748 1 -40.0297 3.35649 426.574 -40.0297 3.35649 426.574
2023 1 -47.8873 1.13299 434.968 -47.8873 1.13299 434.968
2310 1 -48.9881 1.86584 439.198 -48.9881 1.86584 439.198
1151 1 -51.7582 1.14959 420.783 -51.7582 1.14959 420.783
2303 1 -53.7697 0.390607 438.201 -53.7697 0.390607 438.201
2299 1 -56.1604 4.08034 437.703 -56.1604 4.08034 437.703
2033 1 -42.2323 0.395315 435.032 -42.2323 0.395315 435.032
1433 1 -55.8946 0.408864 422.15 -55.8946 0.408864 422.15
1430 1 -57.6401 0.406093 424.016 -57.6401 0.406093 424.016
1426 1 -59.3856 0.403436 425.882 -59.3856 0.403436 425.882
1713 1 -61.1313 0.400887 427.748 -61.1313 0.400887 427.748
1710 1 -62.8769 0.398427 429.614 -62.8769 0.398427 429.614
2330 1 -36.8052 2.60529 438.393 -36.8052 2.60529 438.393
1160 1 -46.1023 0.41179 420.849 -46.1023 0.41179 420.849
1447 1 -47.8487 0.409692 422.714 -47.8487 0.409692 422.714
1444 1 -49.5948 0.407313 424.579 -49.5948 0.407313 424.579
1730 1 -51.3406 0.404785 426.445 -51.3406 0.404785 426.445
1727 1 -53.0863 0.402216 428.31 -53.0863 0.402216 428.31
1724 1 -54.832 0.39966 430.176 -54.832 0.39966 430.176
2008 1 -56.5776 0.397139 432.042 -56.5776 0.397139 432.042
2006 1 -58.3233 0.394656 433.908 -58.3233 0.394656 433.908
1458 1 -41.5478 0.406574 425.143 -41.5478 0.406574 425.143
1743 1 -43.2942 0.404596 427.008 -43.2942 0.404596 427.008
1740 1 -45.0404 0.402444 428.873 -45.0404 0.402444 428.873
2026 1 -46.7864 0.400161 430.739 -46.7864 0.400161 430.739
2022 1 -48.5323 0.397803 432.604 -48.5323 0.397803 432.604
2019 1 -50.2781 0.395408 434.47 -50.2781 0.395408 434.47
2309 1 -49.6331 1.13063 436.834 -49.6331 1.13063 436.834
1137 1 -60.6757 3.36001 421.153 -60.6757 3.36001 421.153
1421 1 -62.4212 3.35739 423.019 -62.4212 3.35739 423.019
1439 1 -52.631 3.36197 421.716 -52.631 3.36197 421.716
1435 1 -54.3766 3.35922 423.582 -54.3766 3.35922 423.582
1432 1 -56.1222 3.3565 425.447 -56.1222 3.3565 425.447
1719 1 -57.8678 3.35386 427.313 -57.8678 3.35386 427.313
1716 1 -59.6134 3.35131 429.179 -59.6134 3.35131 429.179
2001 1 -61.3591 3.34882 431.045 -61.3591 3.34882 431.045
1998 1 -63.1047 3.34639 432.911 -63.1047 3.34639 432.911
2323 1 -40.7143 3.34533 436.464 -40.7143 3.34533 436.464
1453 1 -44.5841 3.36168 422.28 -44.5841 3.36168 422.28
1450 1 -46.3305 3.35964 424.145 -46.3305 3.35964 424.145
1446 1 -48.0766 3.35735 426.01 -48.0766 3.35735 426.01
1732 1 -49.8225 3.35492 427.876 -49.8225 3.35492 427.876
1729 1 -51.5683 3.35243 429.742 -51.5683 3.35243 429.742
2014 1 -53.314 3.34993 431.607 -53.314 3.34993 431.607
2011 1 -55.0597 3.34744 433.473 -55.0597 3.34744 433.473
1745 1 -41.7761 3.35453 428.439 -41.7761 3.35453 428.439
1742 1 -43.5223 3.35242 430.304 -43.5223 3.35242 430.304
2028 1 -45.2684 3.35019 432.17 -45.2684 3.35019 432.17
2025 1 -47.0143 3.34789 434.036 -47.0143 3.34789 434.036
1427 1 -59.1579 1.88307 422.584 -59.1579 1.88307 422.584
1424 1 -60.9034 1.88042 424.45 -60.9034 1.88042 424.45
1711 1 -62.6491 1.8779 426.316 -62.6491 1.8779 426.316
2322 1 -41.5874 1.13051 437.396 -41.5874 1.13051 437.396
1750 1 -38.5116 1.87898 428.005 -38.5116 1.87898 428.005
1155 1 -49.367 1.88717 421.282 -49.367 1.88717 421.282
1441 1 -51.1129 1.88467 423.148 -51.1129 1.88467 423.148
1438 1 -52.8586 1.88204 425.013 -52.8586 1.88204 425.013
1725 1 -54.6042 1.87939 426.879 -54.6042 1.87939 426.879
1722 1 -56.3499 1.87679 428.745 -56.3499 1.87679 428.745
1718 1 -58.0955 1.87424 430.61 -58.0955 1.87424 430.61
2003 1 -59.8412 1.87175 432.476 -59.8412 1.87175 432.476
2000 1 -61.5869 1.8693 434.342 -61.5869 1.8693 434.342
1459 1 -41.3191 1.88592 421.847 -41.3191 1.88592 421.847
1455 1 -43.0659 1.88412 423.712 -43.0659 1.88412 423.712
1452 1 -44.8124 1.88212 425.577 -44.8124 1.88212 425.577
1737 1 -46.5585 1.87991 427.442 -46.5585 1.87991 427.442
1735 1 -48.3045 1.87756 429.307 -48.3045 1.87756 429.307
2020 1 -50.0503 1.87514 431.173 -50.0503 1.87514 431.173
2017 1 -51.7961 1.87269 433.039 -51.7961 1.87269 433.039
2034 1 -42.0043 1.87494 431.736 -42.0043 1.87494 431.736
2031 1 -43.7504 1.87276 433.601 -43.7504 1.87276 433.601
2029 1 -44.6234 4.08536 434.534 -44.6234 4.08536 434.534
1146 1 -55.0218 2.62401 421.217 -55.0218 2.62401 421.217
1431 1 -56.7673 2.62119 423.083 -56.7673 2.62119 423.083
1428 1 -58.5128 2.61848 424.949 -58.5128 2.61848 424.949
1715 1 -60.2584 2.61588 426.815 -60.2584 2.61588 426.815
1712 1 -62.0041 2.61337 428.681 -62.0041 2.61337 428.681
1708 1 -63.7498 2.61095 430.547 -63.7498 2.61095 430.547
1747 1 -40.258 1.87702 429.87 -40.258 1.87702 429.87
1449 1 -46.9756 2.62451 421.781 -46.9756 2.62451 421.781
1445 1 -48.7218 2.62226 423.646 -48.7218 2.62226 423.646
1442 1 -50.4677 2.61979 425.512 -50.4677 2.61979 425.512
1728 1 -52.2134 2.61723 427.377 -52.2134 2.61723 427.377
1726 1 -53.9591 2.61466 429.243 -53.9591 2.61466 429.243
2010 1 -55.7048 2.61212 431.109 -55.7048 2.61212 431.109
2007 1 -57.4505 2.60962 432.975 -57.4505 2.60962 432.975
1456 1 -42.421 2.61933 426.075 -42.421 2.61933 426.075
1741 1 -44.1674 2.61727 427.941 -44.1674 2.61727 427.941
1738 1 -45.9134 2.61504 429.806 -45.9134 2.61504 429.806
2024 1 -47.6594 2.61271 431.671 -47.6594 2.61271 431.671
2021 1 -49.4052 2.61033 433.537 -49.4052 2.61033 433.537
2035 1 -41.3593 2.61013 434.1 -41.3593 2.61013 434.1
1754 1 -36.7651 1.88082 426.14 -36.7651 1.88082 426.14
1423 1 -61.5484 1.14495 422.086 -61.5484 1.14495 422.086
1420 1 -63.294 1.14242 423.952 -63.294 1.14242 423.952
2044 1 -35.7039 1.87207 434.164 -35.7039 1.87207 434.164
1437 1 -53.5038 1.14687 422.649 -53.5038 1.14687 422.649
1434 1 -55.2494 1.14413 424.514 -55.2494 1.14413 424.514
1721 1 -56.995 1.14145 426.38 -56.995 1.14145 426.38
1717 1 -58.7406 1.13885 428.246 -58.7406 1.13885 428.246
1714 1 -60.4862 1.13633 430.112 -60.4862 1.13633 430.112
1999 1 -62.2319 1.13387 431.978 -62.2319 1.13387 431.978
1997 1 -63.9776 1.13146 433.844 -63.9776 1.13146 433.844
1164 1 -43.7107 1.14887 421.348 -43.7107 1.14887 421.348
1451 1 -45.4574 1.14697 423.213 -45.4574 1.14697 423.213
1448 1 -47.2036 1.14479 425.078 -47.2036 1.14479 425.078
1734 1 -48.9496 1.14242 426.943 -48.9496 1.14242 426.943
1731 1 -50.6954 1.13995 428.809 -50.6954 1.13995 428.809
2016 1 -52.4412 1.13745 430.674 -52.4412 1.13745 430.674
2012 1 -54.1869 1.13496 432.54 -54.1869 1.13496 432.54
2009 1 -55.9326 1.13248 434.406 -55.9326 1.13248 434.406
1746 1 -40.9029 1.1418 427.507 -40.9029 1.1418 427.507
1744 1 -42.6493 1.13977 429.372 -42.6493 1.13977 429.372
2030 1 -44.3954 1.13759 431.237 -44.3954 1.13759 431.237
2027 1 -46.1414 1.13532 433.103 -46.1414 1.13532 433.103
2325 1 -39.8413 1.13268 435.531 -39.8413 1.13268 435.531
1749 1 -39.3849 4.09174 428.938 -39.3849 4.09174 428.938
1425 1 -60.0307 4.09546 423.517 -60.0307 4.09546 423.517
1736 1 -47.4315 4.09247 428.375 -47.4315 4.09247 428.375
1142 1 -57.4124 1.88587 420.718 -57.4124 1.88587 420.718
1720 1 -57.2227 4.08924 429.677 -57.2227 4.08924 429.677
2005 1 -58.9684 4.08672 431.543 -58.9684 4.08672 431.543
2002 1 -60.714 4.08425 433.409 -60.714 4.08425 433.409
1169 1 -40.4457 4.10049 420.914 -40.4457 4.10049 420.914
1723 1 -55.4771 4.09181 427.812 -55.4771 4.09181 427.812
1440 1 -51.9858 4.09709 424.08 -51.9858 4.09709 424.08
1733 1 -49.1774 4.09008 430.24 -49.1774 4.09008 430.24
2018 1 -50.9232 4.08764 432.106 -50.9232 4.08764 432.106
2015 1 -52.669 4.0852 433.972 -52.669 4.0852 433.972
2036 1 -41.1312 4.08972 430.803 -41.1312 4.08972 430.803
2032 1 -42.8773 4.08759 432.668 -42.8773 4.08759 432.668
2326 1 -39.1963 1.8679 437.895 -39.1963 1.8679 437.895
1752 1 -37.6384 4.09364 427.073 -37.6384 4.09364 427.073
1457 1 -42.1926 4.09877 422.779 -42.1926 4.09877 422.779
2043 1 -36.3488 1.13677 431.8 -36.3488 1.13677 431.8
2286 1 -63.3325 1.86688 436.208 -63.3325 1.86688 436.208
2319 1 -43.3333 1.12826 439.262 -43.3333 1.12826 439.262
1436 1 -53.7314 4.09444 425.946 -53.7314 4.09444 425.946
1422 1 -61.7763 4.09287 425.383 -61.7763 4.09287 425.383
1173 1 -38.0542 0.410116 421.413 -38.0542 0.410116 421.413
2293 1 -59.424 1.12761 438.138 -59.424 1.12761 438.138
2289 1 -61.8147 0.389777 437.639 -61.8147 0.389777 437.639
2295 1 -57.9061 4.07793 439.569 -57.9061 4.07793 439.569
1465 1 -37.4097 1.14548 423.777 -37.4097 1.14548 423.777
2315 1 -45.7243 0.390792 438.764 -45.7243 0.390792 438.764
2331 1 -36.5771 4.08478 435.097 -36.5771 4.08478 435.097
2297 1 -57.0333 1.8654 438.636 -57.0333 1.8654 438.636
2324 1 -40.0694 4.08054 438.828 -40.0694 4.08054 438.828
2306 1 -51.3789 1.12826 438.7 -51.3789 1.12826 438.7
2285 1 -63.5603 0.387352 439.505 -63.5603 0.387352 439.505
1462 1 -39.1564 1.14369 425.642 -39.1564 1.14369 425.642
1751 1 -37.8668 2.61425 430.369 -37.8668 2.61425 430.369
2329 1 -37.4502 1.87003 436.03 -37.4502 1.87003 436.03
2042 1 -37.2219 3.34951 432.733 -37.2219 3.34951 432.733
2041 1 -38.0951 1.13477 433.666 -38.0951 1.13477 433.666
2593 1 -52.2518 3.3408 439.633 -52.2518 3.3408 439.633
2328 1 -37.6783 0.3905 439.326 -37.6783 0.3905 439.326
2301 1 -54.6425 2.60314 439.134 -54.6425 2.60314 439.134
1466 1 -36.5363 3.36009 422.844 -36.5363 3.36009 422.844
2298 1 -56.8054 3.34498 435.339 -56.8054 3.34498 435.339
2321 1 -42.4604 3.34312 438.329 -42.4604 3.34312 438.329
2313 1 -47.2422 1.86818 437.332 -47.2422 1.86818 437.332
2294 1 -58.5511 3.34255 437.205 -58.5511 3.34255 437.205
2304 1 -52.8968 2.60553 437.269 -52.8968 2.60553 437.269
2300 1 -55.2876 1.86782 436.77 -55.2876 1.86782 436.77
2290 1 -60.9418 2.60472 436.706 -60.9418 2.60472 436.706
2318 1 -43.9783 0.39308 436.898 -43.9783 0.39308 436.898
2327 1 -38.3233 4.0827 436.962 -38.3233 4.0827 436.962
2004 1 -59.1962 2.60715 434.84 -59.1962 2.60715 434.84
2013 1 -53.5418 1.87025 434.904 -53.5418 1.87025 434.904
2288 1 -62.4597 4.08182 435.275 -62.4597 4.08182 435.275
2037 1 -40.4862 0.397472 433.167 -40.4862 0.397472 433.167
1739 1 -45.6855 4.09476 426.509 -45.6855 4.09476 426.509
1753 1 -36.9936 0.401483 429.437 -36.9936 0.401483 429.437
2307 1 -51.151 2.60793 435.403 -51.151 2.60793 435.403
2314 1 -46.3693 4.08306 436.4 -46.3693 4.08306 436.4
2040 1 -38.74 0.399531 431.302 -38.74 0.399531 431.302
2320 1 -43.1054 2.60793 435.965 -43.1054 2.60793 435.965
2292 1 -60.069 0.392206 435.773 -60.069 0.392206 435.773
2311 1 -48.7602 3.34554 435.901 -48.7602 3.34554 435.901
2302 1 -54.4147 4.08276 435.837 -54.4147 4.08276 435.837
2296 1 -57.6783 1.13004 436.272 -57.6783 1.13004 436.272
1463 1 -38.9277 2.62298 422.346 -38.9277 2.62298 422.346
2287 1 -62.6875 2.60229 438.572 -62.6875 2.60229 438.572
2291 1 -60.2968 3.34012 439.071 -60.2968 3.34012 439.071
2317 1 -44.8513 2.60567 437.831 -44.8513 2.60567 437.831
2038 1 -39.6131 2.61224 432.234 -39.6131 2.61224 432.234
2305 1 -52.0239 0.393005 436.336 -52.0239 0.393005 436.336
2332 1 -35.9322 0.392612 437.461 -35.9322 0.392612 437.461
1709 1 -63.5219 4.09041 427.249 -63.5219 4.09041 427.249
1468 1 -35.6629 1.14725 421.912 -35.6629 1.14725 421.912
1454 1 -43.9392 4.09687 424.644 -43.9392 4.09687 424.644
1429 1 -58.2852 4.09818 421.651 -58.2852 4.09818 421.651
1133 1 -63.0661 2.6219 420.654 -63.0661 2.6219 420.654
1175 1 -37.1808 2.62471 420.481 -37.1808 2.62471 420.481
2616 1 -38.7794 1.12355 443.556 -38.7794 1.12355 443.556
2901 1 -40.5254 1.12128 445.421 -40.5254 1.12128 445.421
2907 1 -37.2615 4.07367 444.987 -37.2615 4.07367 444.987
3194 1 -38.3624 0.379189 449.216 -38.3624 0.379189 449.216
2587 1 -55.5154 0.388222 440.067 -55.5154 0.388222 440.067
2597 1 -49.861 4.07839 440.131 -49.861 4.07839 440.131
2584 1 -57.2611 0.385851 441.933 -57.2611 0.385851 441.933
2581 1 -59.0068 0.383482 443.799 -59.0068 0.383482 443.799
2868 1 -60.7525 0.381093 445.665 -60.7525 0.381093 445.665
2865 1 -62.4981 0.378655 447.531 -62.4981 0.378655 447.531
2601 1 -47.4702 0.38847 440.629 -47.4702 0.38847 440.629
2598 1 -49.216 0.386134 442.495 -49.216 0.386134 442.495
2885 1 -50.9618 0.383806 444.361 -50.9618 0.383806 444.361
2882 1 -52.7076 0.381502 446.227 -52.7076 0.381502 446.227
2879 1 -54.4535 0.379228 448.093 -54.4535 0.379228 448.093
2612 1 -41.1704 0.386063 443.057 -41.1704 0.386063 443.057
2898 1 -42.9163 0.383759 444.923 -42.9163 0.383759 444.923
2895 1 -44.6621 0.38142 446.789 -44.6621 0.38142 446.789
3180 1 -46.4079 0.379079 448.654 -46.4079 0.379079 448.654
2576 1 -62.0425 3.3377 440.936 -62.0425 3.3377 440.936
2574 1 -63.7881 3.33526 442.802 -63.7881 3.33526 442.802
2589 1 -53.9976 3.33844 441.499 -53.9976 3.33844 441.499
2586 1 -55.7433 3.3361 443.364 -55.7433 3.3361 443.364
2874 1 -57.4891 3.33377 445.23 -57.4891 3.33377 445.23
2871 1 -59.2348 3.33144 447.096 -59.2348 3.33144 447.096
3155 1 -60.9804 3.32907 448.962 -60.9804 3.32907 448.962
2607 1 -44.2063 3.34085 440.195 -44.2063 3.34085 440.195
2604 1 -45.9522 3.33854 442.061 -45.9522 3.33854 442.061
2600 1 -47.6981 3.3362 443.926 -47.6981 3.3362 443.926
2887 1 -49.4439 3.33387 445.792 -49.4439 3.33387 445.792
2884 1 -51.1897 3.33157 447.658 -51.1897 3.33157 447.658
3168 1 -52.9356 3.32929 449.524 -52.9356 3.32929 449.524
2900 1 -41.3983 3.33385 446.354 -41.3983 3.33385 446.354
2897 1 -43.1441 3.3315 448.22 -43.1441 3.3315 448.22
2582 1 -58.779 1.863 440.502 -58.779 1.863 440.502
2579 1 -60.5246 1.8606 442.368 -60.5246 1.8606 442.368
2866 1 -62.2703 1.85817 444.234 -62.2703 1.85817 444.234
2578 1 -61.1696 1.12519 440.004 -61.1696 1.12519 440.004
2595 1 -50.7339 1.86349 441.064 -50.7339 1.86349 441.064
2592 1 -52.4797 1.86115 442.93 -52.4797 1.86115 442.93
2880 1 -54.2255 1.85884 444.796 -54.2255 1.85884 444.796
2877 1 -55.9713 1.85654 446.662 -55.9713 1.85654 446.662
2873 1 -57.717 1.85426 448.528 -57.717 1.85426 448.528
2609 1 -42.6883 1.86345 441.626 -42.6883 1.86345 441.626
2606 1 -44.4342 1.86114 443.492 -44.4342 1.86114 443.492
2892 1 -46.1801 1.85881 445.357 -46.1801 1.85881 445.357
2890 1 -47.9259 1.85647 447.223 -47.9259 1.85647 447.223
3174 1 -49.6718 1.85416 449.089 -49.6718 1.85416 449.089
2618 1 -37.9064 3.33839 442.623 -37.9064 3.33839 442.623
2585 1 -56.3883 2.60076 441 -56.3883 2.60076 441
2583 1 -58.134 2.59839 442.866 -58.134 2.59839 442.866
2870 1 -59.8797 2.59602 444.732 -59.8797 2.59602 444.732
2867 1 -61.6253 2.59361 446.598 -61.6253 2.59361 446.598
2863 1 -63.3709 2.59113 448.464 -63.3709 2.59113 448.464
2599 1 -48.3431 2.60103 441.562 -48.3431 2.60103 441.562
2596 1 -50.0889 2.59869 443.428 -50.0889 2.59869 443.428
2883 1 -51.8347 2.59638 445.294 -51.8347 2.59638 445.294
2881 1 -53.5806 2.59409 447.16 -53.5806 2.59409 447.16
3164 1 -55.3264 2.59182 449.026 -55.3264 2.59182 449.026
2610 1 -42.0433 2.59864 443.99 -42.0433 2.59864 443.99
2896 1 -43.7892 2.59632 445.856 -43.7892 2.59632 445.856
2893 1 -45.535 2.59397 447.721 -45.535 2.59397 447.721
3178 1 -47.2808 2.59165 449.587 -47.2808 2.59165 449.587
2575 1 -62.9153 1.12276 441.869 -62.9153 1.12276 441.869
2591 1 -53.1247 1.12589 440.566 -53.1247 1.12589 440.566
2588 1 -54.8704 1.12354 442.432 -54.8704 1.12354 442.432
2876 1 -56.6162 1.12121 444.297 -56.6162 1.12121 444.297
2872 1 -58.3619 1.11888 446.163 -58.3619 1.11888 446.163
2869 1 -60.1076 1.11653 448.029 -60.1076 1.11653 448.029
2605 1 -45.0793 1.12597 441.128 -45.0793 1.12597 441.128
2602 1 -46.8251 1.12364 442.993 -46.8251 1.12364 442.993
2889 1 -48.571 1.12131 444.859 -48.571 1.12131 444.859
2886 1 -50.3168 1.11899 446.725 -50.3168 1.11899 446.725
3170 1 -52.0627 1.1167 448.591 -52.0627 1.1167 448.591
2899 1 -42.2712 1.11895 447.287 -42.2712 1.11895 447.287
3184 1 -44.017 1.1166 449.153 -44.017 1.1166 449.153
2580 1 -59.6518 4.07553 441.435 -59.6518 4.07553 441.435
2577 1 -61.3975 4.07312 443.301 -61.3975 4.07312 443.301
2864 1 -63.1431 4.07067 445.167 -63.1431 4.07067 445.167
2862 1 -64.0158 1.8557 446.1 -64.0158 1.8557 446.1
2594 1 -51.6068 4.07604 441.997 -51.6068 4.07604 441.997
2590 1 -53.3526 4.07372 443.863 -53.3526 4.07372 443.863
2878 1 -55.0984 4.07141 445.729 -55.0984 4.07141 445.729
2875 1 -56.8442 4.06913 447.595 -56.8442 4.06913 447.595
3159 1 -58.5899 4.06684 449.461 -58.5899 4.06684 449.461
2611 1 -41.8154 4.07831 440.693 -41.8154 4.07831 440.693
2608 1 -43.5613 4.07603 442.559 -43.5613 4.07603 442.559
2894 1 -45.3072 4.0737 444.425 -45.3072 4.0737 444.425
2891 1 -47.053 4.07136 446.29 -47.053 4.07136 446.29
2888 1 -48.7989 4.06904 448.156 -48.7989 4.06904 448.156
2904 1 -39.0074 4.07139 446.852 -39.0074 4.07139 446.852
2621 1 -36.1603 3.34057 440.757 -36.1603 3.34057 440.757
2617 1 -38.5514 2.60314 440.259 -38.5514 2.60314 440.259
2614 1 -40.2974 2.60092 442.124 -40.2974 2.60092 442.124
2908 1 -36.6165 0.381503 447.351 -36.6165 0.381503 447.351
2619 1 -37.0334 1.12577 441.69 -37.0334 1.12577 441.69
2906 1 -37.4894 2.59408 448.283 -37.4894 2.59408 448.283
2905 1 -38.1344 1.85881 445.919 -38.1344 1.85881 445.919
2620 1 -36.3884 1.86105 444.054 -36.3884 1.86105 444.054
3190 1 -40.7532 4.06906 448.718 -40.7532 4.06906 448.718
2902 1 -39.8803 1.8565 447.785 -39.8803 1.8565 447.785
2903 1 -39.6524 3.33615 444.488 -39.6524 3.33615 444.488
2615 1 -39.4244 0.388314 441.192 -39.4244 0.388314 441.192
2909 1 -35.7435 2.59636 446.418 -35.7435 2.59636 446.418
14 1 -55.1595 4.15177 400.133 -55.1595 4.15177 400.133
7 1 -59.8838 2.64388 399.222 -59.8838 2.64388 399.222
25 1 -47.1153 4.14127 400.607 -47.1153 4.14127 400.607
38 1 -39.0662 4.10135 401.123 -39.0662 4.10135 401.123
23 1 -48.8642 4.1234 402.467 -48.8642 4.1234 402.467
287 1 -52.3557 4.11073 406.167 -52.3557 4.11073 406.167
878 1 -43.2523 4.10717 414.757 -43.2523 4.10717 414.757
579 1 -49.5539 4.1104 412.328 -49.5539 4.1104 412.328
585 1 -46.058 4.11441 408.6 -46.058 4.11441 408.6
290 1 -50.6123 4.11358 404.302 -50.6123 4.11358 404.302
11 1 -56.9013 4.10352 401.899 -56.9013 4.10352 401.899
595 1 -39.758 4.11089 411.027 -39.758 4.11089 411.027
1134 1 -62.8382 4.10146 417.356 -62.8382 4.10146 417.356
283 1 -54.106 4.11218 408.03 -54.106 4.11218 408.03
582 1 -47.8056 4.11204 410.464 -47.8056 4.11204 410.464
276 1 -58.6599 4.12131 403.749 -58.6599 4.12131 403.749
569 1 -55.8567 4.11354 409.892 -55.8567 4.11354 409.892
847 1 -61.0928 4.10438 415.49 -61.0928 4.10438 415.49
556 1 -63.8998 4.11045 409.326 -63.8998 4.11045 409.326
272 1 -60.4178 4.12548 405.589 -60.4178 4.12548 405.589
3 1 -61.708 2.65961 400.9 -61.708 2.65961 400.9
35 1 -40.8137 4.12282 402.993 -40.8137 4.12282 402.993
598 1 -38.0113 4.11322 409.162 -38.0113 4.11322 409.162
850 1 -59.3479 4.10774 413.623 -59.3479 4.10774 413.623