ITEM: TIMESTEP
0
ITEM: NUMBER OF ATOMS
4630
ITEM: BOX BOUNDS xy xz yz pp pp pp
-6.2162610682136403e+01 1.0518164253033640e+02 0.0000000000000000e+00
0.0000000000000000e+00 4.4274527100805940e+00 0.0000000000000000e+00
3.8000000000000000e+02 5.0000000000000000e+02 0.0000000000000000e+00
ITEM: ATOMS id type x y z xu yu zu
7 1 -58.0512 3.05498 398.657 -58.0512 3.05498 398.657
27 1 -44.7645 2.34143 399.182 -44.7645 2.34143 399.182
36 1 -39.23 1.59793 399.237 -39.23 1.59793 399.237
45 1 -33.7004 0.857132 399.298 -33.7004 0.857132 399.298
85 1 -8.41285 0.854468 399.127 -8.41285 0.854468 399.127
94 1 -2.88051 0.111359 399.19 -2.88051 0.111359 399.19
103 1 2.64527 3.79969 399.258 2.64527 3.79969 399.258
112 1 8.16819 3.06136 399.328 8.16819 3.06136 399.328
152 1 33.4144 3.07789 399.175 33.4144 3.07789 399.175
161 1 38.9381 2.33805 399.237 38.9381 2.33805 399.237
170 1 44.4563 1.60134 399.302 44.4563 1.60134 399.302
227 1 80.7301 0.135782 399.228 80.7301 0.135782 399.228
236 1 86.2578 3.82101 399.279 86.2578 3.82101 399.279
245 1 91.7816 3.08213 399.335 91.7816 3.08213 399.335
5 1 -58.9623 0.836442 399.456 -58.9623 0.836442 399.456
2 1 -60.6974 0.847484 401.273 -60.6974 0.847484 401.273
3 1 -59.871 3.06044 400.35 -59.871 3.06044 400.35
1 1 -61.5262 3.02422 402.23 105.818 3.02422 402.23
4 1 -59.1957 3.76512 402.707 -59.1957 3.76512 402.707
9 1 -56.5916 1.49045 399.914 -56.5916 1.49045 399.914
8 1 -57.4604 3.7502 400.884 -57.4604 3.7502 400.884
10 1 -55.9875 2.25781 402.294 -55.9875 2.25781 402.294
6 1 -58.3374 1.55577 401.766 -58.3374 1.55577 401.766
11 1 -55.1422 0.0583208 401.373 -55.1422 0.0583208 401.373
12 1 -54.2936 2.31486 400.407 -54.2936 2.31486 400.407
16 1 -51.9429 3.00525 400.865 -51.9429 3.00525 400.865
15 1 -52.8003 0.797074 401.857 -52.8003 0.797074 401.857
14 1 -53.4762 0.116149 399.557 -53.4762 0.116149 399.557
17 1 -51.0996 0.805658 399.998 -51.0996 0.805658 399.998
13 1 -53.6436 2.99642 402.775 -53.6436 2.99642 402.775
22 1 -47.9181 3.77972 399.595 -47.9181 3.77972 399.595
20 1 -48.7656 1.56023 400.455 -48.7656 1.56023 400.455
19 1 -49.6266 3.74791 401.4 -49.6266 3.74791 401.4
18 1 -50.465 1.52528 402.346 -50.465 1.52528 402.346
21 1 -48.1411 2.27114 402.847 -48.1411 2.27114 402.847
23 1 -47.2894 0.0717883 401.919 -47.2894 0.0717883 401.919
26 1 -44.9412 0.799232 402.39 -44.9412 0.799232 402.39
24 1 -46.4499 2.2935 400.982 -46.4499 2.2935 400.982
28 1 -44.0948 3.02321 401.477 -44.0948 3.02321 401.477
25 1 -45.5911 0.112709 400.032 -45.5911 0.112709 400.032
29 1 -43.2345 0.800461 400.485 -43.2345 0.800461 400.485
31 1 -42.3855 3.02845 399.621 -42.3855 3.02845 399.621
34 1 -40.0562 3.79708 400.086 -40.0562 3.79708 400.086
32 1 -41.7559 3.75346 401.97 -41.7559 3.75346 401.97
33 1 -40.9216 1.55049 401.033 -40.9216 1.55049 401.033
30 1 -42.6135 1.52678 402.898 -42.6135 1.52678 402.898
35 1 -39.4118 0.0577843 402.446 -39.4118 0.0577843 402.446
40 1 -36.8537 2.28684 399.68 -36.8537 2.28684 399.68
37 1 -38.5657 2.28098 401.534 -38.5657 2.28098 401.534
41 1 -36.227 3.012 402.03 -36.227 3.012 402.03
38 1 -37.7022 0.0587172 400.544 -37.7022 0.0587172 400.544
39 1 -37.0851 0.785627 402.957 -37.0851 0.785627 402.957
43 1 -34.5262 3.05629 400.147 -34.5262 3.05629 400.147
42 1 -35.3915 0.809471 401.094 -35.3915 0.809471 401.094
44 1 -33.8833 3.74387 402.508 -33.8833 3.74387 402.508
46 1 -33.0367 1.53978 401.596 -33.0367 1.53978 401.596
47 1 -32.1731 3.74517 400.606 -32.1731 3.74517 400.606
49 1 -31.3245 1.54579 399.742 -31.3245 1.54579 399.742
52 1 -28.9977 2.31518 400.21 -28.9977 2.31518 400.21
50 1 -30.6988 2.27078 402.093 -30.6988 2.27078 402.093
51 1 -29.8631 0.0683446 401.157 -29.8631 0.0683446 401.157
53 1 -28.3556 3.00243 402.571 -28.3556 3.00243 402.571
54 1 -28.1723 0.115968 399.361 -28.1723 0.115968 399.361
48 1 -31.5571 0.0443196 403.02 -31.5571 0.0443196 403.02
58 1 -25.7968 0.804342 399.806 -25.7968 0.804342 399.806
59 1 -25.1718 1.52925 402.157 -25.1718 1.52925 402.157
56 1 -26.6453 3.0038 400.669 -26.6453 3.0038 400.669
55 1 -27.509 0.798339 401.659 -27.509 0.798339 401.659
60 1 -24.336 3.75433 401.222 -24.336 3.75433 401.222
57 1 -26.03 3.73025 403.084 -26.03 3.73025 403.084
61 1 -23.4707 1.57369 400.274 -23.4707 1.57369 400.274
63 1 -22.6457 3.80189 399.425 -22.6457 3.80189 399.425
62 1 -22.8289 2.2606 402.636 -22.8289 2.2606 402.636
64 1 -21.9823 0.0564805 401.723 -21.9823 0.0564805 401.723
65 1 -21.1189 2.26189 400.734 -21.1189 2.26189 400.734
66 1 -20.504 2.98829 403.149 -20.504 2.98829 403.149
70 1 -17.9451 0.831471 400.339 -17.9451 0.831471 400.339
68 1 -19.6456 0.787248 402.222 -19.6456 0.787248 402.222
69 1 -18.8105 3.01211 401.287 -18.8105 3.01211 401.287
67 1 -20.2704 0.0623575 399.87 -20.2704 0.0623575 399.87
72 1 -17.1225 3.0593 399.489 -17.1225 3.0593 399.489
71 1 -17.3028 1.51844 402.701 -17.3028 1.51844 402.701
75 1 -14.7486 3.74807 399.933 -14.7486 3.74807 399.933
74 1 -15.5938 1.52028 400.798 -15.5938 1.52028 400.798
73 1 -16.4578 3.74149 401.788 -16.4578 3.74149 401.788
76 1 -14.1195 0.039825 402.281 -14.1195 0.039825 402.281
77 1 -13.278 2.26179 401.337 -13.278 2.26179 401.337
348 1 -14.975 2.24309 403.209 -14.975 2.24309 403.209
80 1 -11.5665 2.29312 399.535 -11.5665 2.29312 399.535
81 1 -10.9414 3.01254 401.86 -10.9414 3.01254 401.86
78 1 -12.4153 0.0737939 400.393 -12.4153 0.0737939 400.393
79 1 -11.7951 0.784734 402.786 -11.7951 0.784734 402.786
83 1 -9.24034 3.05326 399.976 -9.24034 3.05326 399.976
82 1 -10.1005 0.806691 400.924 -10.1005 0.806691 400.924
87 1 -6.8847 3.74086 400.432 -6.8847 3.74086 400.432
84 1 -8.59389 3.73968 402.334 -8.59389 3.73968 402.334
86 1 -7.74636 1.53612 401.422 -7.74636 1.53612 401.422
89 1 -6.03472 1.54134 399.569 -6.03472 1.54134 399.569
90 1 -5.40858 2.26651 401.919 -5.40858 2.26651 401.919
88 1 -6.26723 0.0397821 402.846 -6.26723 0.0397821 402.846
92 1 -3.70692 2.3105 400.038 -3.70692 2.3105 400.038
93 1 -3.06564 2.99836 402.399 -3.06564 2.99836 402.399
91 1 -4.57331 0.0637205 400.984 -4.57331 0.0637205 400.984
96 1 -1.35436 2.99979 400.499 -1.35436 2.99979 400.499
95 1 -2.21884 0.794263 401.488 -2.21884 0.794263 401.488
98 1 -0.505323 0.800471 399.636 -0.505323 0.800471 399.636
100 1 0.954209 3.75147 401.053 0.954209 3.75147 401.053
99 1 0.117974 1.52604 401.988 0.117974 1.52604 401.988
97 1 -0.74067 3.72679 402.914 -0.74067 3.72679 402.914
101 1 1.82001 1.57131 400.107 1.82001 1.57131 400.107
102 1 2.46008 2.25836 402.469 2.46008 2.25836 402.469
105 1 4.17127 2.2607 400.568 4.17127 2.2607 400.568
104 1 3.30696 0.0546782 401.557 3.30696 0.0546782 401.557
108 1 5.64237 0.786998 402.058 5.64237 0.786998 402.058
107 1 5.01985 0.0613943 399.705 5.01985 0.0613943 399.705
106 1 4.78389 2.9874 402.984 4.78389 2.9874 402.984
110 1 7.34385 0.832972 400.176 7.34385 0.832972 400.176
111 1 7.98353 1.51946 402.539 7.98353 1.51946 402.539
109 1 6.47841 3.01285 401.124 6.47841 3.01285 401.124
113 1 8.83009 3.74347 401.627 8.83009 3.74347 401.627
114 1 9.69419 1.52237 400.638 9.69419 1.52237 400.638
116 1 10.5423 3.75051 399.775 10.5423 3.75051 399.775
118 1 12.0002 2.27489 401.195 12.0002 2.27489 401.195
117 1 11.1644 0.0487302 402.128 11.1644 0.0487302 402.128
121 1 13.6886 2.3236 399.398 13.6886 2.3236 399.398
120 1 13.5048 0.781244 402.61 13.5048 0.781244 402.61
119 1 12.8652 0.0952288 400.247 12.8652 0.0952288 400.247
115 1 10.3063 2.24889 403.055 10.3063 2.24889 403.055
122 1 14.3509 3.00542 401.698 14.3509 3.00542 401.698
123 1 15.2147 0.784587 400.708 15.2147 0.784587 400.708
125 1 16.0623 3.01267 399.845 16.0623 3.01267 399.845
126 1 16.6842 3.73843 402.199 16.6842 3.73843 402.199
127 1 17.5196 1.5374 401.266 17.5196 1.5374 401.266
124 1 15.8266 1.51098 403.127 15.8266 1.51098 403.127
130 1 19.2064 1.58624 399.468 19.2064 1.58624 399.468
128 1 18.384 3.78533 400.317 18.384 3.78533 400.317
129 1 19.0239 0.0433938 402.681 19.0239 0.0433938 402.681
131 1 19.8696 2.26767 401.768 19.8696 2.26767 401.768
132 1 20.7328 0.0469192 400.778 20.7328 0.0469192 400.778
133 1 21.3449 0.773247 403.197 21.3449 0.773247 403.197
134 1 21.5798 2.27494 399.914 21.5798 2.27494 399.914
136 1 23.0365 0.79965 401.336 23.0365 0.79965 401.336
135 1 22.2022 3.00077 402.269 22.2022 3.00077 402.269
139 1 24.72 0.848194 399.535 24.72 0.848194 399.535
137 1 23.9006 3.04766 400.387 23.9006 3.04766 400.387
138 1 24.5418 3.7331 402.751 24.5418 3.7331 402.751
141 1 26.2487 3.73734 400.846 26.2487 3.73734 400.846
140 1 25.3854 1.52971 401.836 25.3854 1.52971 401.836
142 1 27.0921 1.53778 399.981 27.0921 1.53778 399.981
143 1 27.7196 2.25763 402.332 27.7196 2.25763 402.332
144 1 28.5601 0.0535721 401.389 28.5601 0.0535721 401.389
145 1 29.4212 2.29401 400.443 29.4212 2.29401 400.443
147 1 30.2666 0.0858884 399.583 30.2666 0.0858884 399.583
146 1 30.0405 3.00429 402.839 30.0405 3.00429 402.839
150 1 32.5898 0.849092 400.025 32.5898 0.849092 400.025
148 1 30.8926 0.805922 401.911 30.8926 0.805922 401.911
149 1 31.7319 3.0291 400.976 31.7319 3.0291 400.976
153 1 34.0827 3.7588 401.472 34.0827 3.7588 401.472
151 1 33.237 1.53395 402.386 33.237 1.53395 402.386
156 1 35.7912 3.7652 399.617 35.7912 3.7652 399.617
154 1 34.9431 1.53718 400.481 34.9431 1.53718 400.481
157 1 36.417 0.0634809 401.97 36.417 0.0634809 401.97
155 1 35.5601 2.26322 402.898 35.5601 2.26322 402.898
158 1 37.2508 2.28936 401.035 37.2508 2.28936 401.035
159 1 38.1153 0.109648 400.087 38.1153 0.109648 400.087
162 1 39.6024 3.02008 401.536 39.6024 3.02008 401.536
160 1 38.7574 0.795927 402.45 38.7574 0.795927 402.45
163 1 40.4654 0.799259 400.547 40.4654 0.799259 400.547
165 1 41.3122 3.02741 399.682 41.3122 3.02741 399.682
164 1 41.0794 1.5257 402.964 41.0794 1.5257 402.964
168 1 43.6345 3.80038 400.153 43.6345 3.80038 400.153
167 1 42.7708 1.55232 401.102 42.7708 1.55232 401.102
166 1 41.9362 3.75326 402.036 41.9362 3.75326 402.036
169 1 44.2762 0.0584026 402.516 44.2762 0.0584026 402.516
171 1 45.1212 2.28285 401.602 45.1212 2.28285 401.602
174 1 46.8301 2.29044 399.747 46.8301 2.29044 399.747
175 1 47.4543 3.01603 402.101 47.4543 3.01603 402.101
172 1 45.9838 0.0623202 400.612 45.9838 0.0623202 400.612
173 1 46.5977 0.788296 403.03 46.5977 0.788296 403.03
177 1 49.1519 3.06337 400.217 49.1519 3.06337 400.217
176 1 48.2886 0.815262 401.167 48.2886 0.815262 401.167
179 1 49.973 0.864288 399.366 49.973 0.864288 399.366
181 1 51.5009 3.7525 400.676 51.5009 3.7525 400.676
178 1 49.794 3.74843 402.581 49.794 3.74843 402.581
180 1 50.6386 1.54549 401.666 50.6386 1.54549 401.666
183 1 52.3468 1.55313 399.811 52.3468 1.55313 399.811
184 1 52.9715 2.27852 402.165 52.9715 2.27852 402.165
186 1 54.6684 2.32587 400.28 54.6684 2.32587 400.28
187 1 55.311 3.01066 402.644 55.311 3.01066 402.644
188 1 55.4891 0.126745 399.429 55.4891 0.126745 399.429
185 1 53.8055 0.0777834 401.23 53.8055 0.0777834 401.23
182 1 52.1153 0.0507289 403.094 52.1153 0.0507289 403.094
189 1 56.1554 0.80772 401.729 56.1554 0.80772 401.729
192 1 57.863 0.815326 399.873 57.863 0.815326 399.873
194 1 59.3219 3.76724 401.292 59.3219 3.76724 401.292
193 1 58.4882 1.54055 402.227 58.4882 1.54055 402.227
190 1 57.0173 3.01475 400.738 57.0173 3.01475 400.738
191 1 57.6323 3.74022 403.156 57.6323 3.74022 403.156
195 1 60.1845 1.58781 400.342 60.1845 1.58781 400.342
197 1 61.0047 3.81609 399.49 61.0047 3.81609 399.49
199 1 62.5334 2.27645 400.799 62.5334 2.27645 400.799
196 1 60.8278 2.27245 402.705 60.8278 2.27245 402.705
198 1 61.6718 0.06945 401.79 61.6718 0.06945 401.79
200 1 63.1491 3.0018 403.217 63.1491 3.0018 403.217
202 1 64.0046 0.802057 402.288 64.0046 0.802057 402.288
201 1 63.3787 0.0769558 399.933 63.3787 0.0769558 399.933
206 1 66.5201 3.07741 399.55 66.5201 3.07741 399.55
204 1 65.7002 0.849164 400.402 65.7002 0.849164 400.402
203 1 64.838 3.0287 401.352 64.838 3.0287 401.352
205 1 66.3443 1.53365 402.765 66.3443 1.53365 402.765
207 1 67.188 3.75801 401.85 67.188 3.75801 401.85
209 1 68.8942 3.76528 399.992 68.8942 3.76528 399.992
208 1 68.0491 1.53737 400.858 68.0491 1.53737 400.858
211 1 70.3535 2.28913 401.411 70.3535 2.28913 401.411
210 1 69.5211 0.0628541 402.346 69.5211 0.0628541 402.346
212 1 71.2157 0.109479 400.46 71.2157 0.109479 400.46
214 1 72.0333 2.33734 399.607 72.0333 2.33734 399.607
217 1 74.4064 3.02612 400.047 74.4064 3.02612 400.047
216 1 73.5646 0.798319 400.914 73.5646 0.798319 400.914
215 1 72.7033 3.01827 401.906 72.7033 3.01827 401.906
213 1 71.8614 0.794282 402.822 71.8614 0.794282 402.822
218 1 75.0388 3.74515 402.396 75.0388 3.74515 402.396
220 1 76.7371 3.78094 400.504 76.7371 3.78094 400.504
219 1 75.8775 1.54081 401.451 75.8775 1.54081 401.451
222 1 77.5813 1.57273 399.643 77.5813 1.57273 399.643
223 1 78.2118 2.29213 401.969 78.2118 2.29213 401.969
221 1 77.3612 0.0633215 402.898 77.3612 0.0633215 402.898
224 1 79.0497 0.0874597 401.031 79.0497 0.0874597 401.031
225 1 79.9063 2.33453 400.08 79.9063 2.33453 400.08
229 1 82.2611 3.022 400.531 82.2611 3.022 400.531
228 1 81.4024 0.816551 401.523 81.4024 0.816551 401.523
226 1 80.5578 3.01941 402.439 80.5578 3.01941 402.439
231 1 83.1083 0.822514 399.666 83.1083 0.822514 399.666
234 1 85.435 1.59269 400.13 85.435 1.59269 400.13
233 1 84.5715 3.77289 401.079 84.5715 3.77289 401.079
235 1 86.0812 2.27937 402.491 86.0812 2.27937 402.491
232 1 83.7389 1.54753 402.016 83.7389 1.54753 402.016
230 1 82.8831 3.74758 402.945 82.8831 3.74758 402.945
241 1 89.2618 0.807758 402.071 89.2618 0.807758 402.071
238 1 87.7871 2.28185 400.585 87.7871 2.28185 400.585
240 1 88.6334 0.0825362 399.72 88.6334 0.0825362 399.72
237 1 86.9253 0.0757455 401.576 86.9253 0.0757455 401.576
239 1 88.4057 3.00807 403 88.4057 3.00807 403
242 1 90.0957 3.03365 401.135 90.0957 3.03365 401.135
243 1 90.9587 0.8537 400.186 90.9587 0.8537 400.186
247 1 93.3103 1.54249 400.641 93.3103 1.54249 400.641
246 1 92.4487 3.76386 401.633 92.4487 3.76386 401.633
244 1 91.6039 1.53985 402.547 91.6039 1.53985 402.547
254 1 97.3025 2.34047 399.392 97.3025 2.34047 399.392
249 1 94.1573 3.77066 399.776 94.1573 3.77066 399.776
253 1 97.1272 0.800699 402.604 97.1272 0.800699 402.604
251 1 95.6181 2.29361 401.192 95.6181 2.29361 401.192
252 1 96.4828 0.113134 400.243 96.4828 0.113134 400.243
250 1 94.7848 0.0682686 402.128 94.7848 0.0682686 402.128
248 1 93.9281 2.26866 403.057 93.9281 2.26866 403.057
258 1 99.6759 3.02871 399.833 99.6759 3.02871 399.833
255 1 97.9706 3.02408 401.69 97.9706 3.02408 401.69
259 1 100.304 3.76181 402.189 100.304 3.76181 402.189
260 1 101.141 1.56454 401.257 101.141 1.56454 401.257
256 1 98.8354 0.802728 400.699 98.8354 0.802728 400.699
257 1 99.4504 1.53321 403.116 99.4504 1.53321 403.116
263 1 102.835 1.61268 399.486 102.835 1.61268 399.486
261 1 101.985 3.81568 400.308 101.985 3.81568 400.308
264 1 103.515 2.27989 401.733 103.515 2.27989 401.733
265 1 104.352 0.0471896 400.761 104.352 0.0471896 400.761
262 1 102.653 0.0594281 402.656 102.653 0.0594281 402.656
266 1 104.976 0.786513 403.172 104.976 0.786513 403.172
268 1 -60.8795 3.72871 404.617 -60.8795 3.72871 404.617
271 1 -59.3947 2.2356 406.069 -59.3947 2.2356 406.069
270 1 -60.0347 1.53124 403.661 -60.0347 1.53124 403.661
267 1 -61.7273 1.50178 405.567 -61.7273 1.50178 405.567
272 1 -58.5504 0.036109 405.12 -58.5504 0.036109 405.12
269 1 -60.2429 0.0088237 407.02 -60.2429 0.0088237 407.02
277 1 -56.2102 0.764203 405.625 -56.2102 0.764203 405.625
274 1 -57.7028 2.26274 404.168 -57.7028 2.26274 404.168
278 1 -55.3555 2.9837 404.675 -55.3555 2.9837 404.675
275 1 -57.0588 2.96684 406.57 -57.0588 2.96684 406.57
276 1 -56.8525 0.0540737 403.239 -56.8525 0.0540737 403.239
279 1 -54.7206 3.69431 407.075 -54.7206 3.69431 407.075
280 1 -54.5022 0.775409 403.738 -54.5022 0.775409 403.738
286 1 -51.3183 3.72693 403.277 -51.3183 3.72693 403.277
282 1 -53.0162 3.70996 405.18 -53.0162 3.70996 405.18
284 1 -52.1645 1.50667 404.239 -52.1645 1.50667 404.239
281 1 -53.8693 1.48926 406.131 -53.8693 1.48926 406.131
285 1 -51.5321 2.22115 406.636 -51.5321 2.22115 406.636
291 1 -48.3459 0.754028 406.192 -48.3459 0.754028 406.192
288 1 -49.833 2.24526 404.742 -49.833 2.24526 404.742
292 1 -47.4967 2.98066 405.244 -47.4967 2.98066 405.244
287 1 -50.6826 0.0176692 405.686 -50.6826 0.0176692 405.686
290 1 -48.987 0.0425593 403.794 -48.987 0.0425593 403.794
294 1 -46.6453 0.779709 404.296 -46.6453 0.779709 404.296
297 1 -45.159 3.71163 405.748 -45.159 3.71163 405.748
296 1 -45.7983 3.00303 403.351 -45.7983 3.00303 403.351
298 1 -44.309 1.50873 404.796 -44.309 1.50873 404.796
295 1 -46.0086 1.4865 406.694 -46.0086 1.4865 406.694
300 1 -43.4586 3.73428 403.856 -43.4586 3.73428 403.856
306 1 -40.2706 2.26048 403.406 -40.2706 2.26048 403.406
302 1 -41.9707 2.23927 405.299 -41.9707 2.23927 405.299
304 1 -41.117 0.0381023 404.351 -41.117 0.0381023 404.351
301 1 -42.8198 0.0151811 406.249 -42.8198 0.0151811 406.249
305 1 -40.4826 0.746044 406.751 -40.4826 0.746044 406.751
307 1 -39.633 2.97062 405.805 -39.633 2.97062 405.805
310 1 -37.9315 2.9931 403.914 -37.9315 2.9931 403.914
312 1 -36.4441 1.49847 405.359 -36.4441 1.49847 405.359
311 1 -37.2939 3.7019 406.308 -37.2939 3.7019 406.308
308 1 -38.7819 0.767722 404.854 -38.7819 0.767722 404.854
313 1 -35.5899 3.72446 404.412 -35.5899 3.72446 404.412
315 1 -34.7425 1.51928 403.467 -34.7425 1.51928 403.467
316 1 -34.1064 2.22964 405.866 -34.1064 2.22964 405.866
317 1 -33.2548 0.0264843 404.916 -33.2548 0.0264843 404.916
314 1 -34.9567 0.00526147 406.812 -34.9567 0.00526147 406.812
319 1 -32.4038 2.25178 403.976 -32.4038 2.25178 403.976
320 1 -31.7674 2.96073 406.37 -31.7674 2.96073 406.37
324 1 -29.215 0.777868 403.531 -29.215 0.777868 403.531
321 1 -30.9171 0.757144 405.421 -30.9171 0.757144 405.421
322 1 -30.0627 2.98306 404.475 -30.0627 2.98306 404.475
323 1 -29.4303 3.69141 406.875 -29.4303 3.69141 406.875
325 1 -28.5798 1.48821 405.93 -28.5798 1.48821 405.93
328 1 -26.8768 1.51024 404.04 -26.8768 1.51024 404.04
326 1 -27.7279 3.71244 404.98 -27.7279 3.71244 404.98
329 1 -26.2409 2.2192 406.434 -26.2409 2.2192 406.434
330 1 -25.3905 0.0155511 405.486 -25.3905 0.0155511 405.486
331 1 -24.536 2.2414 404.539 -24.536 2.2414 404.539
337 1 -21.3504 0.768392 404.105 -21.3504 0.768392 404.105
334 1 -23.0534 0.746528 405.994 -23.0534 0.746528 405.994
335 1 -22.2016 2.97065 405.045 -22.2016 2.97065 405.045
333 1 -23.6883 0.0361583 403.595 -23.6883 0.0361583 403.595
338 1 -20.7147 1.47742 406.499 -20.7147 1.47742 406.499
332 1 -23.904 2.9498 406.94 -23.904 2.9498 406.94
340 1 -19.0098 1.49942 404.604 -19.0098 1.49942 404.604
342 1 -18.1625 3.72145 403.66 -18.1625 3.72145 403.66
339 1 -19.8645 3.7011 405.551 -19.8645 3.7011 405.551
344 1 -16.6746 2.22741 405.108 -16.6746 2.22741 405.108
343 1 -17.5273 0.00380797 406.059 -17.5273 0.00380797 406.059
341 1 -18.3778 2.20752 407.005 -18.3778 2.20752 407.005
347 1 -15.1918 0.736898 406.568 -15.1918 0.736898 406.568
349 1 -14.3416 2.96122 405.619 -14.3416 2.96122 405.619
346 1 -15.8242 0.0242103 404.168 -15.8242 0.0242103 404.168
350 1 -13.491 0.760471 404.677 -13.491 0.760471 404.677
351 1 -12.8555 1.47093 407.076 -12.8555 1.47093 407.076
353 1 -12.0047 3.69621 406.129 -12.0047 3.69621 406.129
352 1 -12.6428 2.98432 403.731 -12.6428 2.98432 403.731
354 1 -11.1541 1.49472 405.184 -11.1541 1.49472 405.184
356 1 -10.301 3.7207 404.237 -10.301 3.7207 404.237
358 1 -9.45242 1.51619 403.294 -9.45242 1.51619 403.294
357 1 -9.66729 0.000453715 406.637 -9.66729 0.000453715 406.637
363 1 -6.47766 2.95591 406.197 -6.47766 2.95591 406.197
359 1 -8.8164 2.22513 405.692 -8.8164 2.22513 405.692
362 1 -7.11345 2.24731 403.802 -7.11345 2.24731 403.802
360 1 -7.96506 0.0219353 404.742 -7.96506 0.0219353 404.742
364 1 -5.62749 0.752389 405.248 -5.62749 0.752389 405.248
368 1 -3.92537 0.773552 403.358 -3.92537 0.773552 403.358
366 1 -4.77282 2.9786 404.302 -4.77282 2.9786 404.302
369 1 -3.29081 1.48387 405.758 -3.29081 1.48387 405.758
367 1 -4.1413 3.68678 406.703 -4.1413 3.68678 406.703
370 1 -2.4389 3.70846 404.809 -2.4389 3.70846 404.809
372 1 -1.58774 1.50652 403.87 -1.58774 1.50652 403.87
376 1 0.752311 2.23837 404.371 0.752311 2.23837 404.371
373 1 -0.952857 2.21546 406.265 -0.952857 2.21546 406.265
374 1 -0.10239 0.0121857 405.317 -0.10239 0.0121857 405.317
379 1 2.23363 0.743948 405.828 2.23363 0.743948 405.828
378 1 1.60033 0.0335009 403.428 1.60033 0.0335009 403.428
377 1 1.38292 2.94677 406.773 1.38292 2.94677 406.773
383 1 4.57097 1.47579 406.336 4.57097 1.47579 406.336
380 1 3.08562 2.96856 404.879 3.08562 2.96856 404.879
382 1 3.93696 0.766813 403.94 3.93696 0.766813 403.94
384 1 5.42143 3.70011 405.388 5.42143 3.70011 405.388
385 1 6.27609 1.49904 404.442 6.27609 1.49904 404.442
387 1 7.12398 3.72186 403.498 7.12398 3.72186 403.498
388 1 7.7567 0.00475782 405.899 7.7567 0.00475782 405.899
386 1 6.90607 2.20742 406.844 6.90607 2.20742 406.844
389 1 8.60854 2.22956 404.95 8.60854 2.22956 404.95
391 1 9.45965 0.0280181 404.011 9.45965 0.0280181 404.011
392 1 10.0933 0.736913 406.407 10.0933 0.736913 406.407
393 1 10.9436 2.96141 405.459 10.9436 2.96141 405.459
394 1 11.7979 0.760513 404.513 11.7979 0.760513 404.513
396 1 12.6456 2.98353 403.57 12.6456 2.98353 403.57
397 1 13.2781 3.69379 405.971 13.2781 3.69379 405.971
395 1 12.4277 1.46884 406.916 12.4277 1.46884 406.916
398 1 14.1296 1.49128 405.022 14.1296 1.49128 405.022
400 1 14.9804 3.71734 404.082 14.9804 3.71734 404.082
401 1 15.614 4.42618 406.479 15.614 4.42618 406.479
402 1 16.464 2.22335 405.531 16.464 2.22335 405.531
403 1 17.318 0.0225513 404.585 17.318 0.0225513 404.585
405 1 18.1652 2.24568 403.641 18.1652 2.24568 403.641
406 1 18.7979 2.95591 406.043 18.7979 2.95591 406.043
409 1 20.4994 2.97958 404.153 20.4994 2.97958 404.153
410 1 21.1335 3.68842 406.55 21.1335 3.68842 406.55
407 1 19.649 0.753444 405.093 19.649 0.753444 405.093
404 1 17.9479 0.730877 406.988 17.9479 0.730877 406.988
412 1 22.8367 3.71229 404.655 22.8367 3.71229 404.655
411 1 21.9829 1.4856 405.602 21.9829 1.4856 405.602
415 1 24.3168 2.21741 406.112 24.3168 2.21741 406.112
414 1 23.683 1.50788 403.711 23.683 1.50788 403.711
416 1 25.1685 0.0144785 405.161 25.1685 0.0144785 405.161
413 1 23.4672 4.42019 407.058 23.4672 4.42019 407.058
418 1 26.0177 2.2397 404.22 26.0177 2.2397 404.22
419 1 26.649 2.95228 406.623 26.649 2.95228 406.623
420 1 26.8656 0.032382 403.261 26.8656 0.032382 403.261
421 1 27.4981 0.750213 405.674 27.4981 0.750213 405.674
422 1 28.3473 2.97794 404.731 28.3473 2.97794 404.731
424 1 29.1943 0.775503 403.784 29.1943 0.775503 403.784
426 1 30.6812 3.71362 405.238 30.6812 3.71362 405.238
425 1 29.8319 1.48676 406.185 29.8319 1.48676 406.185
430 1 32.3801 3.73709 403.347 32.3801 3.73709 403.347
428 1 31.5329 1.51309 404.291 31.5329 1.51309 404.291
429 1 32.1663 2.21982 406.693 32.1663 2.21982 406.693
432 1 33.8657 2.24321 404.796 33.8657 2.24321 404.796
431 1 33.0158 0.0179996 405.747 33.0158 0.0179996 405.747
435 1 35.3517 0.750082 406.252 35.3517 0.750082 406.252
436 1 36.2003 2.97498 405.302 36.2003 2.97498 405.302
434 1 34.7157 0.0421231 403.855 34.7157 0.0421231 403.855
440 1 37.8993 2.99793 403.41 37.8993 2.99793 403.41
438 1 37.0534 0.774615 404.355 37.0534 0.774615 404.355
439 1 37.6853 1.48215 406.758 37.6853 1.48215 406.758
442 1 39.3846 1.50553 404.861 39.3846 1.50553 404.861
441 1 38.5343 3.70757 405.812 38.5343 3.70757 405.812
444 1 40.2341 3.73187 403.921 40.2341 3.73187 403.921
446 1 41.7188 2.23762 405.368 41.7188 2.23762 405.368
445 1 40.8699 0.0126115 406.318 40.8699 0.0126115 406.318
450 1 43.4182 2.26046 403.476 43.4182 2.26046 403.476
451 1 44.0527 2.97007 405.878 44.0527 2.97007 405.878
448 1 42.5718 0.0371002 404.421 42.5718 0.0371002 404.421
449 1 43.2035 0.74469 406.824 43.2035 0.74469 406.824
452 1 44.903 0.767923 404.927 44.903 0.767923 404.927
454 1 45.7527 2.99432 403.986 45.7527 2.99432 403.986
457 1 48.09 3.72696 404.486 48.09 3.72696 404.486
455 1 46.3882 3.70241 406.383 46.3882 3.70241 406.383
456 1 47.2371 1.49996 405.434 47.2371 1.49996 405.434
459 1 48.9362 1.52296 403.542 48.9362 1.52296 403.542
458 1 48.7218 0.00690697 406.889 48.7218 0.00690697 406.889
460 1 49.5709 2.23232 405.943 49.5709 2.23232 405.943
463 1 51.2705 2.25668 404.051 51.2705 2.25668 404.051
461 1 50.4211 0.0302155 404.992 50.4211 0.0302155 404.992
464 1 51.9063 2.96453 406.448 51.9063 2.96453 406.448
465 1 52.755 0.762118 405.498 52.755 0.762118 405.498
468 1 54.4536 0.785199 403.605 54.4536 0.785199 403.605
466 1 53.6077 2.98916 404.55 53.6077 2.98916 404.55
469 1 55.0887 1.49433 406.006 55.0887 1.49433 406.006
467 1 54.2399 3.69635 406.953 54.2399 3.69635 406.953
470 1 55.9386 3.7197 405.055 55.9386 3.7197 405.055
472 1 56.7878 1.51871 404.114 56.7878 1.51871 404.114
475 1 59.125 2.25101 404.612 59.125 2.25101 404.612
473 1 57.4241 2.22639 406.51 57.4241 2.22639 406.51
474 1 58.2726 0.0239793 405.56 58.2726 0.0239793 405.56
477 1 59.9707 0.0470271 403.667 59.9707 0.0470271 403.667
481 1 62.3049 0.780341 404.175 62.3049 0.780341 404.175
478 1 60.6064 0.756031 406.068 60.6064 0.756031 406.068
479 1 61.456 2.98137 405.116 61.456 2.98137 405.116
482 1 62.9419 1.48794 406.571 62.9419 1.48794 406.571
476 1 59.7578 2.95807 407.015 59.7578 2.95807 407.015
483 1 63.7901 3.71293 405.621 63.7901 3.71293 405.621
486 1 65.4876 3.73583 403.727 65.4876 3.73583 403.727
488 1 66.9734 2.2426 405.176 66.9734 2.2426 405.176
484 1 64.6422 1.51244 404.672 64.6422 1.51244 404.672
487 1 66.124 0.017377 406.127 66.124 0.017377 406.127
485 1 65.2757 2.21948 407.075 65.2757 2.21948 407.075
490 1 67.822 0.0414701 404.234 67.822 0.0414701 404.234
493 1 69.3076 2.97397 405.679 69.3076 2.97397 405.679
491 1 68.4599 0.749122 406.63 68.4599 0.749122 406.63
494 1 70.1597 0.773367 404.73 70.1597 0.773367 404.73
492 1 68.6656 2.26273 403.276 68.6656 2.26273 403.276
496 1 71.0044 2.9965 403.784 71.0044 2.9965 403.784
497 1 71.6423 3.70492 406.184 71.6423 3.70492 406.184
500 1 73.3401 3.72737 404.288 73.3401 3.72737 404.288
498 1 72.4924 1.5021 405.231 72.4924 1.5021 405.231
502 1 74.1863 1.52 403.327 74.1863 1.52 403.327
501 1 73.9755 0.0113986 406.689 73.9755 0.0113986 406.689
503 1 74.8231 2.23686 405.738 74.8231 2.23686 405.738
506 1 76.5164 2.2621 403.845 76.5164 2.2621 403.845
507 1 77.1581 2.9725 406.244 77.1581 2.9725 406.244
504 1 75.6709 0.0371522 404.793 75.6709 0.0371522 404.793
508 1 78.0061 0.771946 405.296 78.0061 0.771946 405.296
510 1 78.8564 2.99882 404.347 78.8564 2.99882 404.347
512 1 79.7022 0.795226 403.401 79.7022 0.795226 403.401
514 1 81.1909 3.72801 404.846 81.1909 3.72801 404.846
516 1 82.0397 1.52678 403.904 82.0397 1.52678 403.904
513 1 80.3422 1.50287 405.799 80.3422 1.50287 405.799
511 1 79.4939 3.7047 406.746 79.4939 3.7047 406.746
517 1 82.6797 2.23411 406.299 82.6797 2.23411 406.299
523 1 85.8632 0.763254 405.852 85.8632 0.763254 405.852
520 1 84.3793 2.25843 404.399 84.3793 2.25843 404.399
518 1 83.5273 0.0314675 405.348 83.5273 0.0314675 405.348
522 1 85.2241 0.0540787 403.452 85.2241 0.0540787 403.452
521 1 85.0152 2.96538 406.8 85.0152 2.96538 406.8
526 1 87.5612 0.787184 403.958 87.5612 0.787184 403.958
528 1 89.0488 3.71987 405.402 89.0488 3.71987 405.402
524 1 86.7126 2.98852 404.9 86.7126 2.98852 404.9
529 1 89.901 1.51914 404.454 89.901 1.51914 404.454
527 1 88.2007 1.49504 406.353 88.2007 1.49504 406.353
536 1 93.7225 0.756189 406.409 93.7225 0.756189 406.409
531 1 90.7467 3.74218 403.508 90.7467 3.74218 403.508
533 1 92.2345 2.24932 404.956 92.2345 2.24932 404.956
532 1 91.3848 0.0242647 405.908 91.3848 0.0242647 405.908
535 1 93.0837 0.0479155 404.014 93.0837 0.0479155 404.014
530 1 90.5363 2.22651 406.855 90.5363 2.22651 406.855
538 1 95.4235 0.780184 404.51 95.4235 0.780184 404.51
541 1 96.9066 3.71369 405.964 96.9066 3.71369 405.964
540 1 96.269 3.00309 403.565 96.269 3.00309 403.565
537 1 94.5707 2.98092 405.459 94.5707 2.98092 405.459
539 1 96.0581 1.48822 406.911 96.0581 1.48822 406.911
546 1 100.096 2.24195 405.512 100.096 2.24195 405.512
544 1 98.6049 3.7385 404.073 98.6049 3.7385 404.073
542 1 97.7566 1.5118 405.013 97.7566 1.5118 405.013
547 1 100.948 0.0410312 404.564 100.948 0.0410312 404.564
545 1 99.2459 0.0172311 406.464 99.2459 0.0172311 406.464
553 1 104.129 2.99415 404.122 104.129 2.99415 404.122
550 1 102.431 2.97169 406.017 102.431 2.97169 406.017
554 1 104.767 3.70382 406.518 104.767 3.70382 406.518
549 1 101.8 2.2638 403.613 101.8 2.2638 403.613
551 1 103.281 0.769014 405.066 103.281 0.769014 405.066
548 1 101.582 0.74705 406.965 101.582 0.74705 406.965
560 1 -59.6048 0.71641 409.42 -59.6048 0.71641 409.42
558 1 -61.0913 2.2102 407.969 -61.0913 2.2102 407.969
562 1 -58.7556 2.94216 408.47 -58.7556 2.94216 408.47
559 1 -60.454 2.91826 410.369 -60.454 2.91826 410.369
556 1 -61.9407 4.41209 408.918 -61.9407 4.41209 408.918
273 1 -57.9076 0.740837 407.521 -57.9076 0.740837 407.521
565 1 -56.4198 3.67312 408.972 -56.4198 3.67312 408.972
568 1 -54.9331 2.17923 410.424 -54.9331 2.17923 410.424
567 1 -55.571 1.47084 408.024 -55.571 1.47084 408.024
564 1 -57.269 1.44774 409.922 -57.269 1.44774 409.922
563 1 -58.118 3.64969 410.87 -58.118 3.64969 410.87
573 1 -51.7468 0.708379 409.981 -51.7468 0.708379 409.981
571 1 -53.2339 2.20109 408.529 -53.2339 2.20109 408.529
283 1 -52.3832 4.42446 407.581 -52.3832 4.42446 407.581
569 1 -54.0837 4.40409 409.476 -54.0837 4.40409 409.476
574 1 -50.8964 2.93308 409.034 -50.8964 2.93308 409.034
572 1 -52.5968 2.91109 410.928 -52.5968 2.91109 410.928
576 1 -50.046 0.73012 408.086 -50.046 0.73012 408.086
578 1 -48.5591 3.66542 409.538 -48.5591 3.66542 409.538
289 1 -49.1956 2.9558 407.14 -49.1956 2.9558 407.14
580 1 -47.7088 1.46304 408.59 -47.7088 1.46304 408.59
577 1 -49.4095 1.44038 410.485 -49.4095 1.44038 410.485
293 1 -46.8587 3.68854 407.643 -46.8587 3.68854 407.643
299 1 -43.6707 2.21725 407.196 -43.6707 2.21725 407.196
583 1 -45.3712 2.19468 409.092 -45.3712 2.19468 409.092
585 1 -44.5208 4.41982 408.145 -44.5208 4.41982 408.145
582 1 -46.2215 4.39707 410.041 -46.2215 4.39707 410.041
586 1 -43.8842 0.700884 410.543 -43.8842 0.700884 410.543