ITEM: TIMESTEP
0
ITEM: NUMBER OF ATOMS
4630
ITEM: BOX BOUNDS xy xz yz pp pp pp
-6.3905962310798358e+01 1.0692499415899836e+02 0.0000000000000000e+00
0.0000000000000000e+00 4.4274527100805940e+00 0.0000000000000000e+00
3.8000000000000000e+02 5.0000000000000000e+02 0.0000000000000000e+00
ITEM: ATOMS id type x y z xu yu zu
7 1 -59.6165 2.70935 399.141 -59.6165 2.70935 399.141
27 1 -46.0331 2.0066 399.691 -46.0331 2.0066 399.691
36 1 -40.3939 1.26582 399.75 -40.3939 1.26582 399.75
45 1 -34.7575 0.527042 399.812 -34.7575 0.527042 399.812
85 1 -8.965 0.53279 399.637 -8.965 0.53279 399.637
94 1 -3.32555 4.21984 399.696 -3.32555 4.21984 399.696
103 1 2.3104 3.48133 399.759 2.3104 3.48133 399.759
112 1 7.94579 2.74312 399.822 7.94579 2.74312 399.822
152 1 33.7341 2.74543 399.643 33.7341 2.74543 399.643
161 1 39.3737 2.0035 399.7 39.3737 2.0035 399.7
170 1 45.0103 1.26351 399.759 45.0103 1.26351 399.759
227 1 82.0759 4.21563 399.694 82.0759 4.21563 399.694
236 1 87.7154 3.47461 399.751 87.7154 3.47461 399.751
245 1 93.351 2.73517 399.812 93.351 2.73517 399.812
5 1 -60.5166 0.495727 399.939 -60.5166 0.495727 399.939
2 1 -62.3216 0.512529 401.709 -62.3216 0.512529 401.709
3 1 -61.4399 2.72336 400.822 -61.4399 2.72336 400.822
1 1 -63.1786 2.70141 402.646 107.652 2.70141 402.646
4 1 -60.7952 3.45849 403.144 -60.7952 3.45849 403.144
9 1 -58.1266 1.17726 400.402 -58.1266 1.17726 400.402
8 1 -59.0041 3.43153 401.356 -59.0041 3.43153 401.356
10 1 -57.5101 1.94561 402.746 -57.5101 1.94561 402.746
6 1 -59.9088 1.23924 402.226 -59.9088 1.23924 402.226
11 1 -56.6452 4.16431 401.824 -56.6452 4.16431 401.824
12 1 -55.7767 1.98412 400.881 -55.7767 1.98412 400.881
16 1 -53.3859 2.68269 401.345 -53.3859 2.68269 401.345
15 1 -54.2595 0.487056 402.328 -54.2595 0.487056 402.328
14 1 -54.9137 4.21418 400.051 -54.9137 4.21418 400.051
17 1 -52.5193 0.484359 400.493 -52.5193 0.484359 400.493
13 1 -55.125 2.69388 403.224 -55.125 2.69388 403.224
22 1 -49.251 3.45666 400.096 -49.251 3.45666 400.096
20 1 -50.1397 1.23409 400.937 -50.1397 1.23409 400.937
19 1 -51.0207 3.42676 401.86 -51.0207 3.42676 401.86
18 1 -51.8765 1.21531 402.807 -51.8765 1.21531 402.807
21 1 -49.5085 1.96432 403.296 -49.5085 1.96432 403.296
23 1 -48.6345 4.18309 402.389 -48.6345 4.18309 402.389
26 1 -46.2446 0.491847 402.857 -46.2446 0.491847 402.857
24 1 -47.7762 1.96287 401.452 -47.7762 1.96287 401.452
28 1 -45.3777 2.7081 401.963 -45.3777 2.7081 401.963
25 1 -46.8922 4.20465 400.525 -46.8922 4.20465 400.525
29 1 -44.5018 0.475327 400.981 -44.5018 0.475327 400.981
31 1 -43.6352 2.70401 400.13 -43.6352 2.70401 400.13
34 1 -41.2595 3.46406 400.58 -41.2595 3.46406 400.58
32 1 -42.9927 3.43869 402.446 -42.9927 3.43869 402.446
33 1 -42.1426 1.22472 401.507 -42.1426 1.22472 401.507
30 1 -43.8701 1.22052 403.356 -43.8701 1.22052 403.356
35 1 -40.6086 4.18077 402.915 -40.6086 4.18077 402.915
40 1 -37.9979 1.96441 400.191 -37.9979 1.96441 400.191
37 1 -39.743 1.96955 402.022 -39.743 1.96955 402.022
41 1 -37.3571 2.70004 402.507 -37.3571 2.70004 402.507
38 1 -38.8662 4.16289 401.041 -38.8662 4.16289 401.041
39 1 -38.2348 0.48228 403.417 -38.2348 0.48228 403.417
43 1 -35.623 2.72524 400.642 -35.623 2.72524 400.642
42 1 -36.5066 0.48573 401.568 -36.5066 0.48573 401.568
44 1 -34.9727 3.44229 402.977 -34.9727 3.44229 402.977
46 1 -34.1069 1.23097 402.084 -34.1069 1.23097 402.084
47 1 -33.2299 3.42437 401.103 -33.2299 3.42437 401.103
49 1 -32.3616 1.22589 400.253 -32.3616 1.22589 400.253
52 1 -29.9868 1.98687 400.704 -29.9868 1.98687 400.704
50 1 -31.721 1.96164 402.569 -31.721 1.96164 402.569
51 1 -30.8704 4.1748 401.631 -30.8704 4.1748 401.631
53 1 -29.3366 2.70395 403.039 -29.3366 2.70395 403.039
54 1 -29.1213 4.21613 399.874 -29.1213 4.21613 399.874
48 1 -32.5988 4.17138 403.479 -32.5988 4.17138 403.479
58 1 -26.7255 0.487528 400.316 -26.7255 0.487528 400.316
59 1 -26.0849 1.2233 402.632 -26.0849 1.2233 402.632
56 1 -27.5938 2.68602 401.166 -27.5938 2.68602 401.166
55 1 -28.4708 0.492627 402.147 -28.4708 0.492627 402.147
60 1 -25.2343 3.43646 401.693 -25.2343 3.43646 401.693
57 1 -26.9627 3.43307 403.542 -26.9627 3.43307 403.542
61 1 -24.3508 1.24851 400.767 -24.3508 1.24851 400.767
63 1 -23.4853 3.47776 399.937 -23.4853 3.47776 399.937
62 1 -23.7005 1.96555 403.102 -23.7005 1.96555 403.102
64 1 -22.8346 4.18165 402.209 -22.8346 4.18165 402.209
65 1 -21.9578 1.94751 401.228 -21.9578 1.94751 401.228
66 1 -21.3266 2.69454 403.604 -21.3266 2.69454 403.604
70 1 -18.7146 0.509643 400.829 -18.7146 0.509643 400.829
68 1 -20.4486 0.484718 402.694 -20.4486 0.484718 402.694
69 1 -19.5984 2.69765 401.756 -19.5984 2.69765 401.756
67 1 -21.0895 4.17647 400.378 -21.0895 4.17647 400.378
72 1 -17.8506 2.7386 399.998 -17.8506 2.7386 399.998
71 1 -18.0637 1.22687 403.164 -18.0637 1.22687 403.164
75 1 -15.4554 3.43793 400.438 -15.4554 3.43793 400.438
74 1 -16.3213 1.20912 401.289 -16.3213 1.20912 401.289
73 1 -17.1988 3.44274 402.271 -17.1988 3.44274 402.271
76 1 -14.8117 4.17009 402.751 -14.8117 4.17009 402.751
77 1 -13.9547 1.95351 401.804 -13.9547 1.95351 401.804
348 1 -15.6872 1.95386 403.662 -15.6872 1.95386 403.662
80 1 -12.1837 1.98302 400.041 -12.1837 1.98302 400.041
81 1 -11.5675 2.70985 402.334 -11.5675 2.70985 402.334
78 1 -13.0738 4.18787 400.882 -13.0738 4.18787 400.882
79 1 -12.4421 0.491427 403.24 -12.4421 0.491427 403.24
83 1 -9.82451 2.73085 400.471 -9.82451 2.73085 400.471
82 1 -10.7091 0.489164 401.397 -10.7091 0.489164 401.397
87 1 -7.43383 3.42919 400.927 -7.43383 3.42919 400.927
84 1 -9.17704 3.44607 402.803 -9.17704 3.44607 402.803
86 1 -8.31001 1.23465 401.909 -8.31001 1.23465 401.909
89 1 -6.56707 1.2304 400.076 -6.56707 1.2304 400.076
90 1 -5.92471 1.96533 402.392 -5.92471 1.96533 402.392
88 1 -6.80231 4.17473 403.302 -6.80231 4.17473 403.302
92 1 -4.19132 1.99062 400.527 -4.19132 1.99062 400.527
93 1 -3.54061 2.70748 402.862 -3.54061 2.70748 402.862
91 1 -5.07454 4.17875 401.453 -5.07454 4.17875 401.453
96 1 -1.79805 2.68955 400.987 -1.79805 2.68955 400.987
95 1 -2.6749 0.49622 401.969 -2.6749 0.49622 401.969
98 1 -0.929693 0.491069 400.138 -0.929693 0.491069 400.138
100 1 0.561384 3.43997 401.515 0.561384 3.43997 401.515
99 1 -0.28917 1.22679 402.454 -0.28917 1.22679 402.454
97 1 -1.16687 3.4365 403.364 -1.16687 3.4365 403.364
101 1 1.44501 1.25207 400.589 1.44501 1.25207 400.589
102 1 2.09507 1.96907 402.924 2.09507 1.96907 402.924
105 1 3.83786 1.95123 401.05 3.83786 1.95123 401.05
104 1 2.96087 4.18523 402.032 2.96087 4.18523 402.032
108 1 5.34643 0.488494 402.517 5.34643 0.488494 402.517
107 1 4.70609 4.18021 400.2 4.70609 4.18021 400.2
106 1 4.46872 2.6982 403.427 4.46872 2.6982 403.427
110 1 7.08056 0.51387 400.652 7.08056 0.51387 400.652
111 1 7.73057 1.23076 402.987 7.73057 1.23076 402.987
109 1 6.19701 2.70174 401.578 6.19701 2.70174 401.578
113 1 8.59632 3.44693 402.095 8.59632 3.44693 402.095
114 1 9.47325 1.21296 401.113 9.47325 1.21296 401.113
116 1 10.3414 3.44193 400.263 10.3414 3.44193 400.263
118 1 11.8323 1.96337 401.641 11.8323 1.96337 401.641
117 1 10.9818 4.17759 402.58 10.9818 4.17759 402.58
121 1 13.5808 2.00471 399.885 13.5808 2.00471 399.885
120 1 13.3659 0.492284 403.05 13.3659 0.492284 403.05
119 1 12.7157 4.20294 400.715 12.7157 4.20294 400.715
115 1 10.1041 1.95986 403.49 10.1041 1.95986 403.49
122 1 14.2315 2.70842 402.157 14.2315 2.70842 402.157
123 1 15.1084 0.474436 401.176 15.1084 0.474436 401.176
125 1 15.9764 2.70336 400.326 15.9764 2.70336 400.326
126 1 16.617 3.43892 402.642 16.617 3.43892 402.642
127 1 17.4674 1.22466 401.704 17.4674 1.22466 401.704
124 1 15.7394 1.22123 403.552 15.7394 1.22123 403.552
130 1 19.2156 1.2659 399.947 19.2156 1.2659 399.947
128 1 18.3507 3.46415 400.777 18.3507 3.46415 400.777
129 1 19.0011 4.18083 403.112 19.0011 4.18083 403.112
131 1 19.8667 1.96945 402.22 19.8667 1.96945 402.22
132 1 20.7433 4.1628 401.238 20.7433 4.1628 401.238
133 1 21.3748 0.482033 403.614 21.3748 0.482033 403.614
134 1 21.6113 1.96425 400.388 21.6113 1.96425 400.388
136 1 23.1023 0.485061 401.765 23.1023 0.485061 401.765
135 1 22.2524 2.69962 402.704 22.2524 2.69962 402.704
139 1 24.8494 0.525856 400.007 24.8494 0.525856 400.007
137 1 23.9858 2.72443 400.838 23.9858 2.72443 400.838
138 1 24.6372 3.44127 403.173 24.6372 3.44127 403.173
141 1 26.3789 3.42341 401.297 26.3789 3.42341 401.297
140 1 25.5017 1.22962 402.279 25.5017 1.22962 402.279
142 1 27.2445 1.22469 400.446 27.2445 1.22469 400.446
143 1 27.8888 1.95642 402.759 27.8888 1.95642 402.759
144 1 28.7454 4.16716 401.812 28.7454 4.16716 401.812
145 1 29.626 1.9739 400.889 29.626 1.9739 400.889
147 1 30.5156 4.19638 400.048 30.5156 4.19638 400.048
146 1 30.2584 2.70461 403.247 30.2584 2.70461 403.247
150 1 32.8749 0.516132 400.477 32.8749 0.516132 400.477
148 1 31.1326 0.49544 402.341 31.1326 0.49544 402.341
149 1 31.9907 2.70209 401.403 31.9907 2.70209 401.403
153 1 34.3899 3.44696 401.914 34.3899 3.44696 401.914
151 1 33.5232 1.23106 402.808 33.5232 1.23106 402.808
156 1 36.1322 3.44246 400.081 36.1322 3.44246 400.081
154 1 35.2657 1.21389 400.932 35.2657 1.21389 400.932
157 1 36.7755 4.17697 402.396 36.7755 4.17697 402.396
155 1 35.8982 1.95907 403.307 35.8982 1.95907 403.307
158 1 37.6253 1.96273 401.457 37.6253 1.96273 401.457
159 1 38.5082 4.20183 400.53 38.5082 4.20183 400.53
162 1 40.0253 2.70706 401.972 40.0253 2.70706 401.972
160 1 39.1598 0.491035 402.865 39.1598 0.491035 402.865
163 1 40.9017 0.472752 400.99 40.9017 0.472752 400.99
165 1 41.7698 2.70163 400.14 41.7698 2.70163 400.14
164 1 41.534 1.2194 403.365 41.534 1.2194 403.365
168 1 44.1451 3.4618 400.59 44.1451 3.4618 400.59
167 1 43.2617 1.22247 401.516 43.2617 1.22247 401.516
166 1 42.4114 3.43699 402.455 42.4114 3.43699 402.455
169 1 44.7961 4.17871 402.924 44.7961 4.17871 402.924
171 1 45.6617 1.96725 402.032 45.6617 1.96725 402.032
174 1 47.4064 1.96195 400.2 47.4064 1.96195 400.2
175 1 48.0478 2.69742 402.515 48.0478 2.69742 402.515
172 1 46.5383 4.1605 401.05 46.5383 4.1605 401.05
173 1 47.1704 0.47983 403.426 47.1704 0.47983 403.426
177 1 49.7815 2.72235 400.65 49.7815 2.72235 400.65
176 1 48.8981 0.482978 401.576 48.8981 0.482978 401.576
179 1 50.6467 0.524092 399.82 50.6467 0.524092 399.82
181 1 52.1747 3.42116 401.11 52.1747 3.42116 401.11
178 1 50.4325 3.4393 402.985 50.4325 3.4393 402.985
180 1 51.2981 1.22788 402.092 51.2981 1.22788 402.092
183 1 53.0428 1.22263 400.26 53.0428 1.22263 400.26
184 1 53.6842 1.95818 402.576 53.6842 1.95818 402.576
186 1 55.4179 1.98318 400.711 55.4179 1.98318 400.711
187 1 56.0689 2.70016 403.045 56.0689 2.70016 403.045
188 1 56.2831 4.21238 399.88 56.2831 4.21238 399.88
185 1 54.5345 4.17122 401.637 54.5345 4.17122 401.637
182 1 52.8067 4.16801 403.486 52.8067 4.16801 403.486
189 1 56.9345 0.488752 402.152 56.9345 0.488752 402.152
192 1 58.6791 0.48354 400.32 58.6791 0.48354 400.32
194 1 60.1708 3.4322 401.697 60.1708 3.4322 401.697
193 1 59.3206 1.21914 402.636 59.3206 1.21914 402.636
190 1 57.8111 2.68206 401.171 57.8111 2.68206 401.171
191 1 58.4431 3.42896 403.546 58.4431 3.42896 403.546
195 1 61.0541 1.24418 400.771 61.0541 1.24418 400.771
197 1 61.9193 3.47339 399.94 61.9193 3.47339 399.94
199 1 63.4473 1.94311 401.231 63.4473 1.94311 401.231
196 1 61.7052 1.96118 403.106 61.7052 1.96118 403.106
198 1 62.5707 4.17723 402.213 62.5707 4.17723 402.213
200 1 64.0794 2.69004 403.607 64.0794 2.69004 403.607
202 1 64.9568 0.480204 402.696 64.9568 0.480204 402.696
201 1 64.3153 4.17203 400.381 64.3153 4.17203 400.381
206 1 67.5553 2.73447 400.001 67.5553 2.73447 400.001
204 1 66.6903 0.505254 400.831 66.6903 0.505254 400.831
203 1 65.8071 2.69328 401.758 65.8071 2.69328 401.758
205 1 67.3415 1.22223 403.166 67.3415 1.22223 403.166
207 1 68.207 3.43826 402.273 68.207 3.43826 402.273
209 1 69.9514 3.43299 400.441 69.9514 3.43299 400.441
208 1 69.0834 1.20406 401.291 69.0834 1.20406 401.291
211 1 71.4431 1.95396 401.817 71.4431 1.95396 401.817
210 1 70.5933 4.16857 402.756 70.5933 4.16857 402.756
212 1 72.3265 4.19333 400.891 72.3265 4.19333 400.891
214 1 73.1902 1.9948 400.059 73.1902 1.9948 400.059
217 1 75.5856 2.69395 400.498 75.5856 2.69395 400.498
216 1 74.7201 0.465175 401.349 74.7201 0.465175 401.349
215 1 73.843 2.69887 402.331 73.843 2.69887 402.331
213 1 72.9785 0.483061 403.225 72.9785 0.483061 403.225
218 1 76.2304 3.42601 402.811 76.2304 3.42601 402.811
220 1 77.9675 3.4436 400.941 77.9675 3.4436 400.941
219 1 77.0869 1.20932 401.863 77.0869 1.20932 401.863
222 1 78.8572 1.2387 400.099 78.8572 1.2387 400.099
223 1 79.4745 1.96547 402.392 79.4745 1.96547 402.392
221 1 78.6003 4.17459 403.299 78.6003 4.17459 403.299
224 1 80.3325 4.17214 401.455 80.3325 4.17214 401.455
225 1 81.2167 1.98628 400.528 81.2167 1.98628 400.528
229 1 83.6076 2.68441 400.983 83.6076 2.68441 400.983
228 1 82.7319 0.489976 401.966 82.7319 0.489976 401.966
226 1 81.8652 2.70149 402.86 81.8652 2.70149 402.86
231 1 84.474 0.485575 400.132 84.474 0.485575 400.132
234 1 86.85 1.24544 400.582 86.85 1.24544 400.582
233 1 85.9671 3.4337 401.508 85.9671 3.4337 401.508
235 1 87.5017 1.96229 402.916 87.5017 1.96229 402.916
232 1 85.1174 1.2204 402.447 85.1174 1.2204 402.447
230 1 84.2402 3.42993 403.358 84.2402 3.42993 403.358
241 1 90.7528 0.481128 402.507 90.7528 0.481128 402.507
238 1 89.2434 1.94407 401.042 89.2434 1.94407 401.042
240 1 90.1114 4.17295 400.191 90.1114 4.17295 400.191
237 1 88.367 4.17834 402.023 88.367 4.17834 402.023
239 1 89.8756 2.69105 403.417 89.8756 2.69105 403.417
242 1 91.6029 2.69411 401.569 91.6029 2.69411 401.569
243 1 92.486 0.506006 400.642 92.486 0.506006 400.642
247 1 94.8786 1.20445 401.103 94.8786 1.20445 401.103
246 1 94.0023 3.4388 402.084 94.0023 3.4388 402.084
244 1 93.1371 1.22298 402.977 93.1371 1.22298 402.977
254 1 98.9834 1.9934 399.874 98.9834 1.9934 399.874
249 1 95.7466 3.4332 400.253 95.7466 3.4332 400.253
253 1 98.7719 0.483319 403.039 98.7719 0.483319 403.039
251 1 97.237 1.95393 401.631 97.237 1.95393 401.631
252 1 98.1204 4.19257 400.704 98.1204 4.19257 400.704
250 1 96.3876 4.16893 402.569 96.3876 4.16893 402.569
248 1 95.5106 1.95183 403.479 95.5106 1.95183 403.479
258 1 101.377 2.68804 400.315 101.377 2.68804 400.315
255 1 99.6357 2.69788 402.147 99.6357 2.69788 402.147
259 1 102.017 3.43359 402.637 102.017 3.43359 402.637
260 1 102.863 1.2204 401.709 102.863 1.2204 401.709
256 1 100.513 0.462031 401.165 100.513 0.462031 401.165
257 1 101.144 1.2166 403.546 101.144 1.2166 403.546
263 1 104.575 1.24953 399.959 104.575 1.24953 399.959
261 1 103.731 3.45952 400.778 103.731 3.45952 400.778
264 1 105.292 1.96434 402.18 105.292 1.96434 402.18
265 1 106.14 4.1607 401.226 106.14 4.1607 401.226
262 1 104.415 4.17772 403.092 104.415 4.17772 403.092
266 1 106.793 0.476935 403.59 106.793 0.476935 403.59
268 1 -62.5241 3.43588 405.016 -62.5241 3.43588 405.016
271 1 -61.0129 1.95877 406.456 -61.0129 1.95877 406.456
270 1 -61.6599 1.23262 404.074 -61.6599 1.23262 404.074
267 1 -63.3901 1.21693 405.957 -63.3901 1.21693 405.957
272 1 -60.1476 4.17929 405.522 -60.1476 4.17929 405.522
269 1 -61.8804 4.16644 407.394 -61.8804 4.16644 407.394
277 1 -57.7576 0.484871 406.03 -57.7576 0.484871 406.03
274 1 -59.276 1.96912 404.588 -59.276 1.96912 404.588
278 1 -56.8791 2.69508 405.096 -56.8791 2.69508 405.096
275 1 -58.6292 2.69641 406.958 -58.6292 2.69641 406.958
276 1 -58.3977 4.17858 403.676 -58.3977 4.17858 403.676
279 1 -56.2422 3.42823 407.463 -56.2422 3.42823 407.463
280 1 -56.0044 0.478568 404.171 -56.0044 0.478568 404.171
286 1 -52.7519 3.42513 403.719 -52.7519 3.42513 403.719
282 1 -54.4933 3.42679 405.597 -54.4933 3.42679 405.597
284 1 -53.6199 1.21563 404.672 -53.6199 1.21563 404.672
281 1 -55.3686 1.21424 406.534 -55.3686 1.21424 406.534
285 1 -52.9838 1.94959 407.037 -52.9838 1.94959 407.037
291 1 -49.7311 0.477561 406.601 -49.7311 0.477561 406.601
288 1 -51.2415 1.95533 405.169 -51.2415 1.95533 405.169
292 1 -48.8614 2.69639 405.667 -48.8614 2.69639 405.667
287 1 -52.1129 4.16386 406.099 -52.1129 4.16386 406.099
290 1 -50.3758 4.17019 404.23 -50.3758 4.17019 404.23
294 1 -47.9894 0.487847 404.735 -47.9894 0.487847 404.735
297 1 -46.4784 3.43268 406.168 -46.4784 3.43268 406.168
296 1 -47.1228 2.702 403.8 -47.1228 2.702 403.8
298 1 -45.6075 1.22167 405.231 -45.6075 1.22167 405.231
295 1 -47.3481 1.21615 407.102 -47.3481 1.21615 407.102
300 1 -44.7362 3.43868 404.306 -44.7362 3.43868 404.306
306 1 -41.4857 1.96146 403.861 -41.4857 1.96146 403.861
302 1 -43.2239 1.95651 405.729 -43.2239 1.95651 405.729
304 1 -42.35 4.17494 404.797 -42.35 4.17494 404.797
301 1 -44.0932 4.16894 406.667 -44.0932 4.16894 406.667
305 1 -41.7101 0.477153 407.165 -41.7101 0.477153 407.165
307 1 -40.8411 2.69321 406.23 -40.8411 2.69321 406.23
310 1 -39.1006 2.70031 404.366 -39.1006 2.70031 404.366
312 1 -37.5879 1.21836 405.79 -37.5879 1.21836 405.79
311 1 -38.4567 3.43037 406.729 -38.4567 3.43037 406.729
308 1 -39.9704 0.482644 405.292 -39.9704 0.482644 405.292
313 1 -36.7145 3.43684 404.858 -36.7145 3.43684 404.858
315 1 -35.85 1.22319 403.922 -35.85 1.22319 403.922
316 1 -35.2053 1.95518 406.292 -35.2053 1.95518 406.292
317 1 -34.3346 4.17197 405.353 -34.3346 4.17197 405.353
314 1 -36.0741 4.1665 407.226 -36.0741 4.1665 407.226
319 1 -33.4647 1.96205 404.428 -33.4647 1.96205 404.428
320 1 -32.8208 2.69232 406.791 -32.8208 2.69232 406.791
324 1 -30.2139 0.484894 403.985 -30.2139 0.484894 403.985
321 1 -31.952 0.480214 405.852 -31.952 0.480214 405.852
322 1 -31.0785 2.69861 404.92 -31.0785 2.69861 404.92
323 1 -30.4381 3.4284 407.289 -30.4381 3.4284 407.289
325 1 -29.5693 1.21701 406.355 -29.5693 1.21701 406.355
328 1 -27.8286 1.22377 404.491 -27.8286 1.22377 404.491
326 1 -28.6986 3.43374 405.416 -28.6986 3.43374 405.416
329 1 -27.1847 1.95411 406.854 -27.1847 1.95411 406.854
330 1 -26.3159 4.16941 405.915 -26.3159 4.16941 405.915
331 1 -25.4423 1.96031 404.983 -25.4423 1.96031 404.983
337 1 -22.1923 0.485341 404.553 -22.1923 0.485341 404.553
334 1 -23.9331 0.478694 406.417 -23.9331 0.478694 406.417
335 1 -23.0624 2.69536 405.479 -23.0624 2.69536 405.479
333 1 -24.5778 4.174 404.047 -24.5778 4.174 404.047
338 1 -21.5484 1.21565 406.916 -21.5484 1.21565 406.916
332 1 -24.802 2.69013 407.352 -24.802 2.69013 407.352
340 1 -19.8058 1.22172 405.045 -19.8058 1.22172 405.045
342 1 -18.9415 3.43528 404.109 -18.9415 3.43528 404.109
339 1 -20.6796 3.43086 405.978 -20.6796 3.43086 405.978
344 1 -17.4252 1.95588 405.539 -17.4252 1.95588 405.539
343 1 -18.2968 4.16698 406.479 -18.2968 4.16698 406.479
341 1 -19.1656 1.95125 407.414 -19.1656 1.95125 407.414
347 1 -15.9148 0.4772 406.981 -15.9148 0.4772 406.981
349 1 -15.0457 2.69252 406.041 -15.0457 2.69252 406.041
346 1 -16.5558 4.17275 404.613 -16.5558 4.17275 404.613
350 1 -14.1754 0.483609 405.112 -14.1754 0.483609 405.112
351 1 -13.5328 1.21605 407.481 -13.5328 1.21605 407.481
353 1 -12.6636 3.43296 406.545 -12.6636 3.43296 406.545
352 1 -13.3095 2.69786 404.173 -13.3095 2.69786 404.173
354 1 -11.7943 1.22405 405.611 -11.7943 1.22405 405.611
356 1 -10.9222 3.44265 404.679 -10.9222 3.44265 404.679
358 1 -10.0556 1.22899 403.745 -10.0556 1.22899 403.745
357 1 -10.2803 4.17115 407.047 -10.2803 4.17115 407.047
363 1 -7.02533 2.69611 406.613 -7.02533 2.69611 406.613
359 1 -9.41084 1.96004 406.113 -9.41084 1.96004 406.113
362 1 -7.66848 1.96562 404.251 -7.66848 1.96562 404.251
360 1 -8.53982 4.17627 405.176 -8.53982 4.17627 405.176
364 1 -6.15605 0.48354 405.675 -6.15605 0.48354 405.675
368 1 -4.4177 0.488236 403.807 -4.4177 0.488236 403.807
366 1 -5.2821 2.70183 404.743 -5.2821 2.70183 404.743
369 1 -3.77321 1.22016 406.177 -3.77321 1.22016 406.177
367 1 -4.64218 3.43166 407.111 -4.64218 3.43166 407.111
370 1 -2.90245 3.43696 405.238 -2.90245 3.43696 405.238
372 1 -2.03266 1.22711 404.313 -2.03266 1.22711 404.313
376 1 0.353367 1.96365 404.805 0.353367 1.96365 404.805
373 1 -1.38882 1.95728 406.676 -1.38882 1.95728 406.676
374 1 -0.520068 4.17267 405.737 -0.520068 4.17267 405.737
379 1 1.86239 0.482015 406.24 1.86239 0.482015 406.24
378 1 1.21782 4.17743 403.869 1.21782 4.17743 403.869
377 1 0.993664 2.69337 407.174 0.993664 2.69337 407.174
383 1 4.24669 1.21912 406.739 4.24669 1.21912 406.739
380 1 2.73302 2.69878 405.301 2.73302 2.69878 405.301
382 1 3.60288 0.488846 404.376 3.60288 0.488846 404.376
384 1 5.11542 3.43446 405.8 5.11542 3.43446 405.8
385 1 5.98888 1.22539 404.868 5.98888 1.22539 404.868
387 1 6.85334 3.43915 403.933 6.85334 3.43915 403.933
388 1 7.49788 4.17121 406.303 7.49788 4.17121 406.303
386 1 6.62916 1.95516 407.237 6.62916 1.95516 407.237
389 1 8.3685 1.96047 405.364 8.3685 1.96047 405.364
391 1 9.23833 4.17797 404.439 9.23833 4.17797 404.439
392 1 9.88217 0.480779 406.802 9.88217 0.480779 406.802
393 1 10.7509 2.69608 405.863 10.7509 2.69608 405.863
394 1 11.6243 0.486983 404.931 11.6243 0.486983 404.931
396 1 12.4887 2.70071 403.996 12.4887 2.70071 403.996
397 1 13.1333 3.43272 406.366 13.1333 3.43272 406.366
395 1 12.2647 1.21671 407.3 12.2647 1.21671 407.3
398 1 14.0039 1.22194 405.427 14.0039 1.22194 405.427
400 1 14.8737 3.43938 404.501 14.8737 3.43938 404.501
401 1 15.5177 4.16959 406.865 15.5177 4.16959 406.865
402 1 16.3863 1.95739 405.926 16.3863 1.95739 405.926
403 1 17.2597 4.17568 404.994 17.2597 4.17568 404.994
405 1 18.1241 1.9619 404.058 18.1241 1.9619 404.058
406 1 18.7689 2.69382 406.428 18.7689 2.69382 406.428
409 1 20.5092 2.70033 404.563 20.5092 2.70033 404.563
410 1 21.1534 3.4304 406.926 21.1534 3.4304 406.926
407 1 19.6394 0.482955 405.489 19.6394 0.482955 405.489
404 1 17.9002 0.477876 407.362 17.9002 0.477876 407.362
412 1 22.8956 3.4363 405.055 22.8956 3.4363 405.055
411 1 22.022 1.21807 405.988 22.022 1.21807 405.988
415 1 24.4047 1.95372 406.488 24.4047 1.95372 406.488
414 1 23.7596 1.22234 404.119 23.7596 1.22234 404.119
416 1 25.2761 4.16997 405.549 25.2761 4.16997 405.549
413 1 23.5362 4.16555 407.423 23.5362 4.16555 407.423
418 1 26.1453 1.95928 404.622 26.1453 1.95928 404.622
419 1 26.7868 2.69086 406.989 26.7868 2.69086 406.989
420 1 27.0135 4.16775 403.67 27.0135 4.16775 403.67
421 1 27.6556 0.478613 406.05 27.6556 0.478613 406.05
422 1 28.5257 2.69705 405.12 28.5257 2.69705 405.12
424 1 29.3913 0.483729 404.181 29.3913 0.483729 404.181
426 1 30.9068 3.43688 405.618 30.9068 3.43688 405.618
425 1 30.0377 1.21847 406.552 30.0377 1.21847 406.552
430 1 32.645 3.44157 403.751 32.645 3.44157 403.751
428 1 31.7786 1.2279 404.686 31.7786 1.2279 404.686
429 1 32.4212 1.95603 407.053 32.4212 1.95603 407.053
432 1 34.1612 1.9609 405.181 34.1612 1.9609 405.181
431 1 33.2905 4.17224 406.119 33.2905 4.17224 406.119
435 1 35.6762 0.480222 406.618 35.6762 0.480222 406.618
436 1 36.5453 2.69497 405.679 36.5453 2.69497 405.679
434 1 35.0323 4.17756 404.256 35.0323 4.17756 404.256
440 1 38.283 2.69939 403.81 38.283 2.69939 403.81
438 1 37.4189 0.485682 404.747 37.4189 0.485682 404.747
439 1 38.0597 1.21512 407.114 38.0597 1.21512 407.114
442 1 39.7989 1.22018 405.241 39.7989 1.22018 405.241
441 1 38.9284 3.43095 406.18 38.9284 3.43095 406.18
444 1 40.6685 3.43764 404.315 40.6685 3.43764 404.315
446 1 42.1817 1.95526 405.739 42.1817 1.95526 405.739
445 1 41.3132 4.16745 406.678 41.3132 4.16745 406.678
450 1 43.9191 1.95976 403.87 43.9191 1.95976 403.87
451 1 44.5647 2.69149 406.24 44.5647 2.69149 406.24
448 1 43.0549 4.17358 404.806 43.0549 4.17358 404.806
449 1 43.6962 0.475494 407.174 43.6962 0.475494 407.174
452 1 45.4351 0.480694 405.301 45.4351 0.480694 405.301
454 1 46.3047 2.69809 404.375 46.3047 2.69809 404.375
457 1 48.6913 3.43416 404.866 48.6913 3.43416 404.866
455 1 46.9495 3.42807 406.738 46.9495 3.42807 406.738
456 1 47.818 1.21586 405.799 47.818 1.21586 405.799
459 1 49.5555 1.22034 403.93 49.5555 1.22034 403.93
458 1 49.3325 4.16366 407.235 49.3325 4.16366 407.235
460 1 50.201 1.95219 406.3 50.201 1.95219 406.3
463 1 51.9411 1.9588 404.435 51.9411 1.9588 404.435
461 1 51.0715 4.16885 405.361 51.0715 4.16885 405.361
464 1 52.5859 2.68888 406.798 52.5859 2.68888 406.798
465 1 53.4544 0.476676 405.859 53.4544 0.476676 405.859
468 1 55.1919 0.481176 403.991 55.1919 0.481176 403.991
466 1 54.3277 2.69498 404.926 54.3277 2.69498 404.926
469 1 55.8374 1.21311 406.36 55.8374 1.21311 406.36
467 1 54.9689 3.42458 407.295 54.9689 3.42458 407.295
470 1 56.7079 3.42977 405.421 56.7079 3.42977 405.421
472 1 57.5775 1.21973 404.496 57.5775 1.21973 404.496
475 1 59.964 1.956 404.987 59.964 1.956 404.987
473 1 58.2223 1.9499 406.858 58.2223 1.9499 406.858
474 1 59.0908 4.16515 405.92 59.0908 4.16515 405.92
477 1 60.8282 4.16965 404.051 60.8282 4.16965 404.051
481 1 63.2138 0.480812 404.556 63.2138 0.480812 404.556
478 1 61.4738 0.474203 406.421 61.4738 0.474203 406.421
479 1 62.3442 2.69086 405.482 62.3442 2.69086 405.482
482 1 63.8587 1.21105 406.919 63.8587 1.21105 406.919
476 1 60.6053 2.68567 407.355 60.6053 2.68567 407.355
483 1 64.7272 3.42628 405.98 64.7272 3.42628 405.98
486 1 66.4646 3.43074 404.111 66.4646 3.43074 404.111
488 1 67.9806 1.95194 405.542 67.9806 1.95194 405.542
484 1 65.6004 1.21711 405.047 65.6004 1.21711 405.047
487 1 67.1103 4.16279 406.481 67.1103 4.16279 406.481
485 1 66.2418 1.94684 407.416 66.2418 1.94684 407.416
490 1 68.8503 4.16932 404.616 68.8503 4.16932 404.616
493 1 70.3637 2.68725 406.04 70.3637 2.68725 406.04
491 1 69.4952 0.472097 406.979 69.4952 0.472097 406.979
494 1 71.2371 0.478044 405.107 71.2371 0.478044 405.107
492 1 69.7157 1.951 403.667 69.7157 1.951 403.667
496 1 72.101 2.69154 404.171 72.101 2.69154 404.171
497 1 72.7468 3.42318 406.54 72.7468 3.42318 406.54
500 1 74.4871 3.42882 404.674 74.4871 3.42882 404.674
498 1 73.618 1.21202 405.6 73.618 1.21202 405.6
502 1 75.3552 1.20985 403.722 75.3552 1.20985 403.722
501 1 75.1292 4.1607 407.041 75.1292 4.1607 407.041
503 1 75.9978 1.94848 406.101 75.9978 1.94848 406.101
506 1 77.7333 1.95366 404.232 77.7333 1.95366 404.232
507 1 78.3802 2.68877 406.603 78.3802 2.68877 406.603
504 1 76.8678 4.16695 405.171 76.8678 4.16695 405.171
508 1 79.2491 0.479767 405.669 79.2491 0.479767 405.669
510 1 80.1208 2.69827 404.737 80.1208 2.69827 404.737
512 1 80.987 0.484506 403.803 80.987 0.484506 403.803
514 1 82.5035 3.43173 405.233 82.5035 3.43173 405.233
516 1 83.3745 1.22095 404.308 83.3745 1.22095 404.308
513 1 81.6329 1.21561 406.17 81.6329 1.21561 406.17
511 1 80.7639 3.42684 407.104 80.7639 3.42684 407.104
517 1 84.0188 1.95158 406.669 84.0188 1.95158 406.669
523 1 87.2708 0.475382 406.232 87.2708 0.475382 406.232
520 1 85.7611 1.95698 404.798 85.7611 1.95698 404.798
518 1 84.8876 4.1663 405.731 84.8876 4.1663 405.731
522 1 86.6251 4.17067 403.862 86.6251 4.17067 403.862
521 1 86.4024 2.68708 407.166 86.4024 2.68708 407.166
526 1 89.0103 0.481895 404.367 89.0103 0.481895 404.367
528 1 90.5238 3.42763 405.791 90.5238 3.42763 405.791
524 1 88.1411 2.69197 405.293 88.1411 2.69197 405.293
529 1 91.3966 1.2183 404.858 91.3966 1.2183 404.858
527 1 89.6556 1.21252 406.73 89.6556 1.21252 406.73
536 1 95.2919 0.474887 406.79 95.2919 0.474887 406.79
531 1 92.2605 3.43174 403.923 92.2605 3.43174 403.923
533 1 93.7766 1.95349 405.354 93.7766 1.95349 405.354
532 1 92.9068 4.16461 406.292 92.9068 4.16461 406.292
535 1 94.6457 4.17052 404.428 94.6457 4.17052 404.428
530 1 92.0387 1.94886 407.227 92.0387 1.94886 407.227
538 1 97.0324 0.480044 404.92 97.0324 0.480044 404.92
541 1 98.5433 3.42849 406.354 98.5433 3.42849 406.354
540 1 97.8955 2.69291 403.985 97.8955 2.69291 403.985
537 1 96.1598 2.68975 405.852 96.1598 2.68975 405.852
539 1 97.6757 1.21254 407.287 97.6757 1.21254 407.287
546 1 101.803 1.95531 405.907 101.803 1.95531 405.907
544 1 100.28 3.43481 404.491 100.28 3.43481 404.491
542 1 99.4126 1.21763 405.416 99.4126 1.21763 405.416
547 1 102.675 4.17376 404.975 102.675 4.17376 404.975
545 1 100.933 4.16718 406.847 100.933 4.16718 406.847
553 1 105.927 2.6949 404.529 105.927 2.6949 404.529
550 1 104.188 2.68988 406.402 104.188 2.68988 406.402
554 1 106.572 3.42717 406.896 106.572 3.42717 406.896
549 1 103.545 1.96016 404.034 103.545 1.96016 404.034
551 1 105.058 0.47864 405.463 105.058 0.47864 405.463
548 1 103.318 0.474361 407.34 103.318 0.474361 407.34
560 1 -61.2358 0.46931 409.767 -61.2358 0.46931 409.767
558 1 -62.748 1.94816 408.331 -62.748 1.94816 408.331
562 1 -60.367 2.68745 408.83 -60.367 2.68745 408.83
559 1 -62.1046 2.67913 410.703 -62.1046 2.67913 410.703
556 1 -63.6171 4.1582 409.268 -63.6171 4.1582 409.268
273 1 -59.4991 0.478551 407.895 -59.4991 0.478551 407.895
565 1 -57.9847 3.42449 409.33 -57.9847 3.42449 409.33
568 1 -56.4711 1.94374 410.767 -56.4711 1.94374 410.767
567 1 -57.1147 1.21377 408.397 -57.1147 1.21377 408.397
564 1 -58.854 1.20718 410.266 -58.854 1.20718 410.266
563 1 -59.7229 3.41706 411.202 -59.7229 3.41706 411.202
573 1 -53.2161 0.467967 410.335 -53.2161 0.467967 410.335
571 1 -54.7293 1.9477 408.9 -54.7293 1.9477 408.9
283 1 -53.8567 4.16186 407.967 -53.8567 4.16186 407.967
569 1 -55.6007 4.1598 409.833 -55.6007 4.1598 409.833
574 1 -52.3443 2.68356 409.403 -52.3443 2.68356 409.403
572 1 -54.0872 2.67982 411.269 -54.0872 2.67982 411.269
576 1 -51.4727 0.471315 408.469 -51.4727 0.471315 408.469
578 1 -49.9602 3.42056 409.904 -49.9602 3.42056 409.904
289 1 -50.6011 2.68824 407.537 -50.6011 2.68824 407.537
580 1 -49.0893 1.20936 408.97 -49.0893 1.20936 408.97
577 1 -50.8316 1.20441 410.837 -50.8316 1.20441 410.837
293 1 -48.2188 3.42641 408.036 -48.2188 3.42641 408.036
299 1 -44.9645 1.95204 407.6 -44.9645 1.95204 407.6
583 1 -46.7056 1.9465 409.47 -46.7056 1.9465 409.47
585 1 -45.835 4.16308 408.536 -45.835 4.16308 408.536
582 1 -47.5764 4.15745 410.404 -47.5764 4.15745 410.404
586 1 -45.1926 0.466381 410.903 -45.1926 0.466381 410.903
589 1 -43.4514 0.471776 409.034 -43.4514 0.471776 409.034
591 1 -41.9385 3.41889 410.468 -41.9385 3.41889 410.468
303 1 -42.5813 2.68779 408.099 -42.5813 2.68779 408.099
587 1 -44.3221 2.6827 409.969 -44.3221 2.6827 409.969
592 1 -41.0679 1.20789 409.533 -41.0679 1.20789 409.533
309 1 -39.3273 1.21326 407.662 -39.3273 1.21326 407.662