ITEM: TIMESTEP
0
ITEM: NUMBER OF ATOMS
4630
ITEM: BOX BOUNDS xy xz yz pp pp pp
-6.2356634525901157e+01 1.0537566637410116e+02 0.0000000000000000e+00
0.0000000000000000e+00 4.4274527100805940e+00 0.0000000000000000e+00
3.8000000000000000e+02 5.0000000000000000e+02 0.0000000000000000e+00
ITEM: ATOMS id type x y z xu yu zu
7 1 -58.2196 3.02111 398.711 -58.2196 3.02111 398.711
27 1 -44.9002 2.30869 399.239 -44.9002 2.30869 399.239
36 1 -39.354 1.56555 399.294 -39.354 1.56555 399.294
45 1 -33.8125 0.825015 399.355 -33.8125 0.825015 399.355
85 1 -8.46858 0.823493 399.184 -8.46858 0.823493 399.184
94 1 -2.92425 0.0807345 399.246 -2.92425 0.0807345 399.246
103 1 2.61386 3.76914 399.314 2.61386 3.76914 399.314
112 1 8.14936 3.03084 399.383 8.14936 3.03084 399.383
152 1 33.4562 3.04561 399.227 33.4562 3.04561 399.227
161 1 38.9928 2.30545 399.289 38.9928 2.30545 399.289
170 1 44.5241 1.56827 399.353 44.5241 1.56827 399.353
227 1 80.8859 0.101389 399.28 80.8859 0.101389 399.28
236 1 86.426 3.78678 399.332 86.426 3.78678 399.332
245 1 91.9621 3.04783 399.388 91.9621 3.04783 399.388
5 1 -59.1295 0.803044 399.509 -59.1295 0.803044 399.509
2 1 -60.8729 0.814397 401.321 -60.8729 0.814397 401.321
3 1 -60.0398 3.02732 400.402 -60.0398 3.02732 400.402
1 1 -61.705 2.99235 402.276 106.027 2.99235 402.276
4 1 -59.3689 3.73511 402.756 -59.3689 3.73511 402.756
9 1 -56.757 1.46021 399.968 -56.757 1.46021 399.968
8 1 -57.6269 3.7192 400.936 -57.6269 3.7192 400.936
10 1 -56.1519 2.22716 402.344 -56.1519 2.22716 402.344
6 1 -58.5074 1.52479 401.817 -58.5074 1.52479 401.817
11 1 -55.3042 0.0267833 401.423 -55.3042 0.0267833 401.423
12 1 -54.4532 2.28239 400.46 -54.4532 2.28239 400.46
16 1 -52.0983 2.97384 400.918 -52.0983 2.97384 400.918
15 1 -52.9576 0.76687 401.909 -52.9576 0.76687 401.909
14 1 -53.6306 0.0838864 399.612 -53.6306 0.0838864 399.612
17 1 -51.2522 0.774525 400.053 -51.2522 0.774525 400.053
13 1 -53.8035 2.96691 402.825 -53.8035 2.96691 402.825
22 1 -48.061 3.74832 399.651 -48.061 3.74832 399.651
20 1 -48.9133 1.52842 400.508 -48.9133 1.52842 400.508
19 1 -49.7766 3.71649 401.451 -49.7766 3.71649 401.451
18 1 -50.6171 1.49494 402.397 -50.6171 1.49494 402.397
21 1 -48.2884 2.24109 402.897 -48.2884 2.24109 402.897
23 1 -47.434 0.0407858 401.971 -47.434 0.0407858 401.971
26 1 -45.0813 0.769317 402.442 -45.0813 0.769317 402.442
24 1 -46.5923 2.26103 401.034 -46.5923 2.26103 401.034
28 1 -44.2326 2.99255 401.531 -44.2326 2.99255 401.531
25 1 -45.7305 0.0798387 400.087 -45.7305 0.0798387 400.087
29 1 -43.3703 0.768877 400.54 -43.3703 0.768877 400.54
31 1 -42.5192 2.99707 399.678 -42.5192 2.99707 399.678
34 1 -40.1848 3.76453 400.141 -40.1848 3.76453 400.141
32 1 -41.8885 3.72269 402.023 -41.8885 3.72269 402.023
33 1 -41.0523 1.51864 401.086 -41.0523 1.51864 401.086
30 1 -42.7485 1.49686 402.949 -42.7485 1.49686 402.949
35 1 -39.54 0.0282559 402.498 -39.54 0.0282559 402.498
40 1 -36.9757 2.25573 399.737 -36.9757 2.25573 399.737
37 1 -38.6917 2.2508 401.588 -38.6917 2.2508 401.588
41 1 -36.3478 2.98159 402.083 -36.3478 2.98159 402.083
38 1 -37.8267 0.0273742 400.599 -37.8267 0.0273742 400.599
39 1 -37.2082 0.756078 403.008 -37.2082 0.756078 403.008
43 1 -34.6429 3.024 400.202 -34.6429 3.024 400.202
42 1 -35.5104 0.777868 401.147 -35.5104 0.777868 401.147
44 1 -33.9996 3.7147 402.56 -33.9996 3.7147 402.56
46 1 -33.1508 1.50993 401.65 -33.1508 1.50993 401.65
47 1 -32.2856 3.71414 400.661 -32.2856 3.71414 400.661
49 1 -31.4346 1.51501 399.799 -31.4346 1.51501 399.799
52 1 -29.1025 2.28323 400.265 -29.1025 2.28323 400.265
50 1 -30.8076 2.24072 402.146 -30.8076 2.24072 402.146
51 1 -29.9701 0.0370868 401.21 -29.9701 0.0370868 401.21
53 1 -28.4599 2.97365 402.623 -28.4599 2.97365 402.623
54 1 -28.2724 0.084206 399.418 -28.2724 0.084206 399.418
48 1 -31.6682 0.0151396 403.071 -31.6682 0.0151396 403.071
58 1 -25.8948 0.773955 399.863 -25.8948 0.773955 399.863
59 1 -25.2683 1.49958 402.21 -25.2683 1.49958 402.21
56 1 -26.7457 2.97316 400.725 -26.7457 2.97316 400.725
55 1 -27.611 0.768877 401.713 -27.611 0.768877 401.713
60 1 -24.4308 3.72346 401.274 -24.4308 3.72346 401.274
57 1 -26.1289 3.70146 403.135 -26.1289 3.70146 403.135
61 1 -23.5633 1.54213 400.329 -23.5633 1.54213 400.329
63 1 -22.7336 3.77052 399.482 -22.7336 3.77052 399.482
62 1 -22.921 2.23225 402.688 -22.921 2.23225 402.688
64 1 -22.0722 0.0274426 401.778 -22.0722 0.0274426 401.778
65 1 -21.2071 2.23167 400.789 -21.2071 2.23167 400.789
66 1 -20.5906 2.95992 403.199 -20.5906 2.95992 403.199
70 1 -18.0254 0.800319 400.394 -18.0254 0.800319 400.394
68 1 -19.7299 0.757991 402.274 -19.7299 0.757991 402.274
69 1 -18.893 2.98165 401.339 -18.893 2.98165 401.339
67 1 -20.3562 0.0324077 399.927 -20.3562 0.0324077 399.927
72 1 -17.1979 3.02835 399.546 -17.1979 3.02835 399.546
71 1 -17.3825 1.4905 402.752 -17.3825 1.4905 402.752
75 1 -14.8218 3.71851 399.99 -14.8218 3.71851 399.99
74 1 -15.6696 1.49045 400.853 -15.6696 1.49045 400.853
73 1 -16.5352 3.71287 401.842 -16.5352 3.71287 401.842
76 1 -14.1915 0.0112396 402.333 -14.1915 0.0112396 402.333
77 1 -13.3482 2.23211 401.389 -13.3482 2.23211 401.389
348 1 -15.0494 2.21529 403.259 -15.0494 2.21529 403.259
80 1 -11.6296 2.26349 399.591 -11.6296 2.26349 399.591
81 1 -11.0059 2.98334 401.913 -11.0059 2.98334 401.913
78 1 -12.4832 0.0437113 400.448 -12.4832 0.0437113 400.448
79 1 -11.862 0.756504 402.837 -11.862 0.756504 402.837
83 1 -9.29976 3.02214 400.031 -9.29976 3.02214 400.031
82 1 -10.1629 0.775969 400.977 -10.1629 0.775969 400.977
87 1 -6.94043 3.71107 400.487 -6.94043 3.71107 400.487
84 1 -8.65373 3.71161 402.387 -8.65373 3.71161 402.387
86 1 -7.8039 1.50729 401.477 -7.8039 1.50729 401.477
89 1 -6.08842 1.51177 399.626 -6.08842 1.51177 399.626
90 1 -5.46076 2.23754 401.972 -5.46076 2.23754 401.972
88 1 -6.32171 0.0116888 402.897 -6.32171 0.0116888 402.897
92 1 -3.75528 2.2797 400.092 -3.75528 2.2797 400.092
93 1 -3.11336 2.97064 402.451 -3.11336 2.97064 402.451
91 1 -4.62366 0.0336398 401.036 -4.62366 0.0336398 401.036
96 1 -1.39837 2.97019 400.553 -1.39837 2.97019 400.553
95 1 -2.26434 0.765863 401.541 -2.26434 0.765863 401.541
98 1 -0.546935 0.771109 399.692 -0.546935 0.771109 399.692
100 1 0.915959 3.72149 401.105 0.915959 3.72149 401.105
99 1 0.0779852 1.4973 402.04 0.0779852 1.4973 402.04
97 1 -0.782961 3.69897 402.964 -0.782961 3.69897 402.964
101 1 1.78389 1.5406 400.16 1.78389 1.5406 400.16
102 1 2.42464 2.23083 402.52 2.42464 2.23083 402.52
105 1 4.13958 2.23121 400.622 4.13958 2.23121 400.622
104 1 3.27374 0.0264172 401.61 3.27374 0.0264172 401.61
108 1 5.6148 0.75835 402.109 5.6148 0.75835 402.109
107 1 4.9906 0.0321436 399.76 4.9906 0.0321436 399.76
106 1 4.75401 2.9597 403.034 4.75401 2.9597 403.034
110 1 7.32022 0.802281 400.229 7.32022 0.802281 400.229
111 1 7.9606 1.492 402.589 7.9606 1.492 402.589
109 1 6.45261 2.98292 401.174 6.45261 2.98292 401.174
113 1 8.80941 3.71526 401.679 8.80941 3.71526 401.679
114 1 9.67507 1.4929 400.691 9.67507 1.4929 400.691
116 1 10.5257 3.72128 399.829 10.5257 3.72128 399.829
118 1 11.987 2.24491 401.244 11.987 2.24491 401.244
117 1 11.1495 0.0200638 402.179 11.1495 0.0200638 402.179
121 1 13.6826 2.293 399.452 13.6826 2.293 399.452
120 1 13.4946 0.753742 402.66 13.4946 0.753742 402.66
119 1 12.8543 0.0644621 400.299 12.8543 0.0644621 400.299
115 1 10.289 2.2212 403.104 10.289 2.2212 403.104
122 1 14.343 2.97715 401.749 14.343 2.97715 401.749
123 1 15.2084 0.755023 400.761 15.2084 0.755023 400.761
125 1 16.0585 2.98336 399.899 16.0585 2.98336 399.899
126 1 16.6822 3.70963 402.249 16.6822 3.70963 402.249
127 1 17.5194 1.50726 401.314 17.5194 1.50726 401.314
124 1 15.8222 1.48318 403.174 15.8222 1.48318 403.174
130 1 19.2135 1.55545 399.521 19.2135 1.55545 399.521
128 1 18.3861 3.75438 400.369 18.3861 3.75438 400.369
129 1 19.0267 0.0157374 402.729 19.0267 0.0157374 402.729
131 1 19.8747 2.23922 401.818 19.8747 2.23922 401.818
132 1 20.7395 0.0171691 400.83 20.7395 0.0171691 400.83
133 1 21.3535 0.745218 403.244 21.3535 0.745218 403.244
134 1 21.5892 2.24545 399.967 21.5892 2.24545 399.967
136 1 23.0495 0.769235 401.384 23.0495 0.769235 401.384
135 1 22.2133 2.97172 402.318 22.2133 2.97172 402.318
139 1 24.7405 0.81712 399.588 24.7405 0.81712 399.588
137 1 23.9159 3.01641 400.437 23.9159 3.01641 400.437
138 1 24.5577 3.70516 402.798 24.5577 3.70516 402.798
141 1 26.2688 3.70725 400.897 26.2688 3.70725 400.897
140 1 25.4038 1.50097 401.886 25.4038 1.50097 401.886
142 1 27.1149 1.50795 400.033 27.1149 1.50795 400.033
143 1 27.7439 2.22855 402.379 27.7439 2.22855 402.379
144 1 28.5864 0.0232319 401.436 28.5864 0.0232319 401.436
145 1 29.4497 2.26313 400.493 29.4497 2.26313 400.493
147 1 30.3004 0.0554477 399.635 30.3004 0.0554477 399.635
146 1 30.0702 2.97523 402.884 30.0702 2.97523 402.884
150 1 32.6276 0.816687 400.076 32.6276 0.816687 400.076
148 1 30.9249 0.775726 401.959 30.9249 0.775726 401.959
149 1 31.7665 2.99721 401.024 31.7665 2.99721 401.024
153 1 34.1225 3.72866 401.522 34.1225 3.72866 401.522
151 1 33.2743 1.50469 402.433 33.2743 1.50469 402.433
156 1 35.8351 3.73419 399.669 35.8351 3.73419 399.669
154 1 34.9847 1.50597 400.532 34.9847 1.50597 400.532
157 1 36.4626 0.0328478 402.018 36.4626 0.0328478 402.018
155 1 35.6032 2.23359 402.944 35.6032 2.23359 402.944
158 1 37.2983 2.25746 401.082 37.2983 2.25746 401.082
159 1 38.165 0.0769013 400.136 38.165 0.0769013 400.136
162 1 39.655 2.98974 401.585 39.655 2.98974 401.585
160 1 38.8077 0.766361 402.496 38.8077 0.766361 402.496
163 1 40.5197 0.767587 400.596 40.5197 0.767587 400.596
165 1 41.3691 2.99598 399.733 41.3691 2.99598 399.733
164 1 41.1355 1.49573 403.009 41.1355 1.49573 403.009
168 1 43.6973 3.76716 400.201 43.6973 3.76716 400.201
167 1 42.8313 1.51995 401.148 42.8313 1.51995 401.148
166 1 41.9947 3.72227 402.083 41.9947 3.72227 402.083
169 1 44.3396 0.0284894 402.561 44.3396 0.0284894 402.561
171 1 45.1869 2.25212 401.65 45.1869 2.25212 401.65
174 1 46.9003 2.25862 399.797 46.9003 2.25862 399.797
175 1 47.526 2.98469 402.147 47.526 2.98469 402.147
172 1 46.0512 0.0302482 400.661 46.0512 0.0302482 400.661
173 1 46.667 0.75799 403.074 46.667 0.75799 403.074
177 1 49.2279 3.02979 400.265 49.2279 3.02979 400.265
176 1 48.3623 0.782525 401.212 48.3623 0.782525 401.212
179 1 50.0542 0.830875 399.417 50.0542 0.830875 399.417
181 1 51.5816 3.72012 400.724 51.5816 3.72012 400.724
178 1 49.8705 3.71821 402.626 49.8705 3.71821 402.626
180 1 50.7176 1.51445 401.714 50.7176 1.51445 401.714
183 1 52.4303 1.52101 399.861 52.4303 1.52101 399.861
184 1 53.0565 2.2469 402.211 53.0565 2.2469 402.211
186 1 54.7578 2.29203 400.328 54.7578 2.29203 400.328
187 1 55.4009 2.98022 402.688 55.4009 2.98022 402.688
188 1 55.5837 0.0930817 399.479 55.5837 0.0930817 399.479
185 1 53.8924 0.0447774 401.275 53.8924 0.0447774 401.275
182 1 52.1977 0.0201517 403.137 52.1977 0.0201517 403.137
189 1 56.2477 0.77646 401.776 56.2477 0.77646 401.776
192 1 57.9598 0.783 399.923 57.9598 0.783 399.923
194 1 59.4221 3.73406 401.337 59.4221 3.73406 401.337
193 1 58.5865 1.50875 402.272 58.5865 1.50875 402.272
190 1 57.1114 2.98215 400.786 57.1114 2.98215 400.786
191 1 57.728 3.70946 403.2 57.728 3.70946 403.2
195 1 60.2872 1.55382 400.389 60.2872 1.55382 400.389
197 1 61.1127 3.78228 399.54 61.1127 3.78228 399.54
199 1 62.6408 2.24373 400.847 62.6408 2.24373 400.847
196 1 60.9309 2.24186 402.75 60.9309 2.24186 402.75
198 1 61.7774 0.038062 401.837 61.7774 0.038062 401.837
200 1 63.258 2.97094 403.26 63.258 2.97094 403.26
202 1 64.1162 0.770166 402.333 64.1162 0.770166 402.333
201 1 63.4889 0.0445189 399.983 63.4889 0.0445189 399.983
206 1 66.6414 3.04353 399.6 66.6414 3.04353 399.6
204 1 65.8163 0.815102 400.449 65.8163 0.815102 400.449
203 1 64.9516 2.99544 401.397 64.9516 2.99544 401.397
205 1 66.4607 1.50301 402.809 66.4607 1.50301 402.809
207 1 67.3069 3.72658 401.897 67.3069 3.72658 401.897
209 1 69.0177 3.73282 400.042 69.0177 3.73282 400.042
208 1 68.1698 1.50463 400.906 68.1698 1.50463 400.906
211 1 70.4805 2.25587 401.455 70.4805 2.25587 401.455
210 1 69.6459 0.0309406 402.391 69.6459 0.0309406 402.391
212 1 71.3452 0.0754196 400.507 71.3452 0.0754196 400.507
214 1 72.1681 2.30348 399.657 72.1681 2.30348 399.657
217 1 74.5435 2.99363 400.097 74.5435 2.99363 400.097
216 1 73.6988 0.765556 400.963 73.6988 0.765556 400.963
215 1 72.8356 2.98683 401.953 72.8356 2.98683 401.953
213 1 71.991 0.763626 402.867 71.991 0.763626 402.867
218 1 75.1768 3.71356 402.442 75.1768 3.71356 402.442
220 1 76.8797 3.74766 400.552 76.8797 3.74766 400.552
219 1 76.0177 1.50802 401.497 76.0177 1.50802 401.497
222 1 77.7292 1.53992 399.693 77.7292 1.53992 399.693
223 1 78.3578 2.25969 402.016 78.3578 2.25969 402.016
221 1 77.5044 0.0319615 402.942 77.5044 0.0319615 402.942
224 1 79.1981 0.0533772 401.078 79.1981 0.0533772 401.078
225 1 80.058 2.3 400.129 80.058 2.3 400.129
229 1 82.4166 2.9888 400.581 82.4166 2.9888 400.581
228 1 81.5558 0.784363 401.573 81.5558 0.784363 401.573
226 1 80.7086 2.98805 402.485 80.7086 2.98805 402.485
231 1 83.2661 0.789521 399.717 83.2661 0.789521 399.717
234 1 85.5982 1.5583 400.18 85.5982 1.5583 400.18
233 1 84.7324 3.73927 401.126 84.7324 3.73927 401.126
235 1 86.2446 2.24814 402.538 86.2446 2.24814 402.538
232 1 83.8977 1.5151 402.064 83.8977 1.5151 402.064
230 1 83.0394 3.7161 402.991 83.0394 3.7161 402.991
241 1 89.4331 0.775398 402.119 89.4331 0.775398 402.119
238 1 87.9547 2.24863 400.636 87.9547 2.24863 400.636
240 1 88.8036 0.0495435 399.772 88.8036 0.0495435 399.772
237 1 87.0911 0.0437839 401.626 87.0911 0.0437839 401.626
239 1 88.5746 2.97668 403.046 88.5746 2.97668 403.046
242 1 90.2689 2.99999 401.183 90.2689 2.99999 401.183
243 1 91.1343 0.819257 400.236 91.1343 0.819257 400.236
247 1 93.4902 1.50926 400.693 93.4902 1.50926 400.693
246 1 92.6269 3.7319 401.683 92.6269 3.7319 401.683
244 1 91.7798 1.50867 402.595 91.7798 1.50867 402.595
254 1 97.4954 2.3062 399.445 97.4954 2.3062 399.445
249 1 94.3398 3.73764 399.829 94.3398 3.73764 399.829
253 1 97.3154 0.769501 402.652 97.3154 0.769501 402.652
251 1 95.8037 2.25997 401.241 95.8037 2.25997 401.241
252 1 96.6706 0.0786893 400.294 96.6706 0.0786893 400.294
250 1 94.9685 0.0359268 402.177 94.9685 0.0359268 402.177
248 1 94.1094 2.23734 403.104 94.1094 2.23734 403.104
258 1 99.8709 2.99527 399.887 99.8709 2.99527 399.887
255 1 98.1612 2.99201 401.741 98.1612 2.99201 401.741
259 1 100.5 3.72944 402.239 100.5 3.72944 402.239
260 1 101.338 1.53053 401.308 101.338 1.53053 401.308
256 1 99.0274 0.769176 400.751 99.0274 0.769176 400.751
257 1 99.644 1.50201 403.164 99.644 1.50201 403.164
263 1 103.034 1.57677 399.538 103.034 1.57677 399.538
261 1 102.185 3.78051 400.36 102.185 3.78051 400.36
264 1 103.718 2.24928 401.782 103.718 2.24928 401.782
265 1 104.556 0.0170993 400.813 104.556 0.0170993 400.813
262 1 102.854 0.0292881 402.705 102.854 0.0292881 402.705
266 1 105.183 0.756001 403.218 105.183 0.756001 403.218
268 1 -61.0579 3.69995 404.661 -61.0579 3.69995 404.661
271 1 -59.5704 2.20846 406.112 -59.5704 2.20846 406.112
270 1 -60.2108 1.502 403.707 -60.2108 1.502 403.707
267 1 -61.9077 1.47374 405.61 -61.9077 1.47374 405.61
272 1 -58.7236 0.00825816 405.165 -58.7236 0.00825816 405.165
269 1 -60.4208 4.40977 407.062 -60.4208 4.40977 407.062
277 1 -56.3781 0.736889 405.67 -56.3781 0.736889 405.67
274 1 -57.8733 2.23395 404.214 -57.8733 2.23395 404.214
278 1 -55.5205 2.95548 404.722 -55.5205 2.95548 404.722
275 1 -57.2293 2.94039 406.613 -57.2293 2.94039 406.613
276 1 -57.0197 0.0243526 403.287 -57.0197 0.0243526 403.287
279 1 -54.8858 3.66832 407.118 -54.8858 3.66832 407.118
280 1 -54.6646 0.746409 403.786 -54.6646 0.746409 403.786
286 1 -51.473 3.69739 403.326 -51.473 3.69739 403.326
282 1 -53.1761 3.68227 405.226 -53.1761 3.68227 405.226
284 1 -52.3218 1.4782 404.287 -52.3218 1.4782 404.287
281 1 -54.0318 1.46238 406.175 -54.0318 1.46238 406.175
285 1 -51.6894 2.19456 406.681 -51.6894 2.19456 406.681
291 1 -48.4957 0.726999 406.237 -48.4957 0.726999 406.237
288 1 -49.9851 2.21684 404.789 -49.9851 2.21684 404.789
292 1 -47.644 2.95289 405.291 -47.644 2.95289 405.291
287 1 -50.8373 4.41756 405.732 -50.8373 4.41756 405.732
290 1 -49.1368 0.0131629 403.842 -49.1368 0.0131629 403.842
294 1 -46.7903 0.751223 404.345 -46.7903 0.751223 404.345
297 1 -45.3014 3.68442 405.794 -45.3014 3.68442 405.794
296 1 -45.9409 2.97368 403.401 -45.9409 2.97368 403.401
298 1 -44.4489 1.48073 404.845 -44.4489 1.48073 404.845
295 1 -46.1534 1.46013 406.74 -46.1534 1.46013 406.74
300 1 -43.596 3.70542 403.906 -43.596 3.70542 403.906
306 1 -40.401 2.2314 403.457 -40.401 2.2314 403.457
302 1 -42.1057 2.21173 405.347 -42.1057 2.21173 405.347
304 1 -41.2496 0.00981963 404.401 -41.2496 0.00981963 404.401
301 1 -42.9572 4.41598 406.295 -42.9572 4.41598 406.295
305 1 -40.615 0.719885 406.797 -40.615 0.719885 406.797
307 1 -39.7631 2.94363 405.852 -39.7631 2.94363 405.852
310 1 -38.0569 2.9646 403.964 -38.0569 2.9646 403.964
312 1 -36.5669 1.47128 405.407 -36.5669 1.47128 405.407
311 1 -37.419 3.67553 406.355 -37.419 3.67553 406.355
308 1 -38.9096 0.739988 404.903 -38.9096 0.739988 404.903
313 1 -35.7105 3.69655 404.461 -35.7105 3.69655 404.461
315 1 -34.861 1.49057 403.518 -34.861 1.49057 403.518
316 1 -34.2243 2.20302 405.913 -34.2243 2.20302 405.913
317 1 -33.3704 4.42659 404.965 -33.3704 4.42659 404.965
314 1 -35.0768 4.40689 406.858 -35.0768 4.40689 406.858
319 1 -32.5172 2.22367 404.026 -32.5172 2.22367 404.026
320 1 -31.8803 2.93474 406.417 -31.8803 2.93474 406.417
324 1 -29.3214 0.749548 403.581 -29.3214 0.749548 403.581
321 1 -31.0278 0.730339 405.469 -31.0278 0.730339 405.469
322 1 -30.1711 2.95555 404.524 -30.1711 2.95555 404.524
323 1 -29.5382 3.66598 406.921 -29.5382 3.66598 406.921
325 1 -28.6855 1.46199 405.977 -28.6855 1.46199 405.977
328 1 -26.978 1.48253 404.09 -26.978 1.48253 404.09
326 1 -27.8314 3.6855 405.028 -27.8314 3.6855 405.028
329 1 -26.3416 2.19362 406.481 -26.3416 2.19362 406.481
330 1 -25.489 4.41661 405.533 -25.489 4.41661 405.533
331 1 -24.6323 2.21429 404.589 -24.6323 2.21429 404.589
337 1 -21.4394 0.74109 404.155 -21.4394 0.74109 404.155
334 1 -23.1469 0.720715 406.041 -23.1469 0.720715 406.041
335 1 -22.2928 2.94412 405.093 -22.2928 2.94412 405.093
333 1 -23.7825 0.00825199 403.646 -23.7825 0.00825199 403.646
338 1 -20.8032 1.45224 406.546 -20.8032 1.45224 406.546
332 1 -23.9997 2.92477 406.985 -23.9997 2.92477 406.985
340 1 -19.0937 1.47272 404.653 -19.0937 1.47272 404.653
342 1 -18.2444 3.69395 403.71 -18.2444 3.69395 403.71
339 1 -19.9507 3.6751 405.598 -19.9507 3.6751 405.598
344 1 -16.7535 2.20135 405.156 -16.7535 2.20135 405.156
343 1 -17.6085 4.40589 406.106 -17.6085 4.40589 406.106
341 1 -18.4612 2.18291 407.05 -18.4612 2.18291 407.05
347 1 -15.2678 0.711945 406.614 -15.2678 0.711945 406.614
349 1 -14.4154 2.93538 405.666 -14.4154 2.93538 405.666
346 1 -15.9009 4.42488 404.218 -15.9009 4.42488 404.218
350 1 -13.5625 0.733831 404.725 -13.5625 0.733831 404.725
351 1 -12.9266 1.44649 407.121 -12.9266 1.44649 407.121
353 1 -12.0735 3.67097 406.175 -12.0735 3.67097 406.175
352 1 -12.7121 2.95674 403.78 -12.7121 2.95674 403.78
354 1 -11.2207 1.46878 405.231 -11.2207 1.46878 405.231
356 1 -10.3654 3.69407 404.287 -10.3654 3.69407 404.287
358 1 -9.51463 1.48869 403.344 -9.51463 1.48869 403.344
357 1 -9.73108 4.40335 406.682 -9.73108 4.40335 406.682
363 1 -6.5341 2.93109 406.243 -6.5341 2.93109 406.243
359 1 -8.87797 2.19977 405.739 -8.87797 2.19977 405.739
362 1 -7.17034 2.2203 403.852 -7.17034 2.2203 403.852
360 1 -8.02429 4.42324 404.79 -8.02429 4.42324 404.79
364 1 -5.68164 0.726694 405.296 -5.68164 0.726694 405.296
368 1 -3.97516 0.746293 403.408 -3.97516 0.746293 403.408
366 1 -4.82468 2.95215 404.351 -4.82468 2.95215 404.351
369 1 -3.33986 1.45868 405.805 -3.33986 1.45868 405.805
367 1 -4.19257 3.66243 406.749 -4.19257 3.66243 406.749
370 1 -2.48567 3.68251 404.857 -2.48567 3.68251 404.857
372 1 -1.63229 1.47979 403.919 -1.63229 1.47979 403.919
376 1 0.712801 2.21216 404.42 0.712801 2.21216 404.42
373 1 -0.996796 2.19083 406.311 -0.996796 2.19083 406.311
374 1 -0.144132 4.41416 405.364 -0.144132 4.41416 405.364
379 1 2.19702 0.718961 405.874 2.19702 0.718961 405.874
378 1 1.56281 0.00645312 403.477 1.56281 0.00645312 403.477
377 1 1.34414 2.92261 406.818 1.34414 2.92261 406.818
383 1 4.53951 1.45133 406.381 4.53951 1.45133 406.381
380 1 3.05126 2.94281 404.926 3.05126 2.94281 404.926
382 1 3.90479 0.740244 403.988 3.90479 0.740244 403.988
384 1 5.39217 3.67478 405.434 5.39217 3.67478 405.434
385 1 6.24906 1.47295 404.489 6.24906 1.47295 404.489
387 1 7.09895 3.69491 403.547 7.09895 3.69491 403.547
388 1 7.73265 4.40732 405.944 7.73265 4.40732 405.944
386 1 6.87985 2.18338 406.888 6.87985 2.18338 406.888
389 1 8.58674 2.20387 404.996 8.58674 2.20387 404.996
391 1 9.44007 0.00148996 404.058 9.44007 0.00148996 404.058
392 1 10.0745 0.712492 406.451 10.0745 0.712492 406.451
393 1 10.9269 2.9361 405.504 10.9269 2.9361 405.504
394 1 11.7836 0.734418 404.56 11.7836 0.734418 404.56
396 1 12.6332 2.95655 403.617 12.6332 2.95655 403.617
397 1 13.2668 3.66886 406.015 13.2668 3.66886 406.015
395 1 12.4142 1.44479 406.959 12.4142 1.44479 406.959
398 1 14.1206 1.46553 405.067 14.1206 1.46553 405.067
400 1 14.9736 3.69073 404.129 14.9736 3.69073 404.129
401 1 15.608 4.40167 406.522 15.608 4.40167 406.522
402 1 16.4602 2.19793 405.575 16.4602 2.19793 405.575
403 1 17.3165 4.42378 404.63 17.3165 4.42378 404.63
405 1 18.1658 2.21855 403.688 18.1658 2.21855 403.688
406 1 18.7995 2.93081 406.086 18.7995 2.93081 406.086
409 1 20.5056 2.95276 404.199 20.5056 2.95276 404.199
410 1 21.1404 3.66368 406.592 21.1404 3.66368 406.592
407 1 19.6529 0.727514 405.137 19.6529 0.727514 405.137
404 1 17.9472 0.706671 407.03 17.9472 0.706671 407.03
412 1 22.8483 3.6858 404.7 22.8483 3.6858 404.7
411 1 21.9921 1.45993 405.645 21.9921 1.45993 405.645
415 1 24.3315 2.19207 406.154 24.3315 2.19207 406.154
414 1 23.6968 1.48047 403.757 23.6968 1.48047 403.757
416 1 25.1854 4.41578 405.204 25.1854 4.41578 405.204
413 1 23.4796 4.39573 407.099 23.4796 4.39573 407.099
418 1 26.0371 2.2127 404.265 26.0371 2.2127 404.265
419 1 26.6692 2.92703 406.664 26.6692 2.92703 406.664
420 1 26.8874 0.00421285 403.307 26.8874 0.00421285 403.307
421 1 27.5206 0.723942 405.716 27.5206 0.723942 405.716
422 1 28.3723 2.95073 404.774 28.3723 2.95073 404.774
424 1 29.2215 0.747204 403.828 29.2215 0.747204 403.828
426 1 30.7114 3.68684 405.281 30.7114 3.68684 405.281
425 1 29.8597 1.46079 406.226 29.8597 1.46079 406.226
430 1 32.4149 3.7085 403.392 32.4149 3.7085 403.392
428 1 31.5654 1.48549 404.335 31.5654 1.48549 404.335
429 1 32.1995 2.19425 406.733 32.1995 2.19425 406.733
432 1 33.9037 2.2158 404.839 33.9037 2.2158 404.839
431 1 33.0514 4.41896 405.788 33.0514 4.41896 405.788
435 1 35.3927 0.72385 406.293 35.3927 0.72385 406.293
436 1 36.2438 2.94775 405.344 36.2438 2.94775 405.344
434 1 34.7562 0.01372 403.9 34.7562 0.01372 403.9
440 1 37.9474 2.96891 403.455 37.9474 2.96891 403.455
438 1 37.0993 0.746516 404.399 37.0993 0.746516 404.399
439 1 37.7319 1.45612 406.798 37.7319 1.45612 406.798
442 1 39.4359 1.47768 404.904 39.4359 1.47768 404.904
441 1 38.5832 3.68059 405.853 38.5832 3.68059 405.853
444 1 40.2878 3.70312 403.964 40.2878 3.70312 403.964
446 1 41.7754 2.21002 405.41 41.7754 2.21002 405.41
445 1 40.9242 4.41342 406.358 40.9242 4.41342 406.358
450 1 43.4794 2.2311 403.52 43.4794 2.2311 403.52
451 1 44.1148 2.94277 405.918 44.1148 2.94277 405.918
448 1 42.6308 0.0086707 404.464 42.6308 0.0086707 404.464
449 1 43.2633 0.718315 406.863 43.2633 0.718315 406.863
452 1 44.9675 0.739766 404.969 44.9675 0.739766 404.969
454 1 45.8195 2.96526 404.03 45.8195 2.96526 404.03
457 1 48.1622 3.69824 404.529 48.1622 3.69824 404.529
455 1 46.4557 3.67547 406.423 46.4557 3.67547 406.423
456 1 47.3069 1.47207 405.474 47.3069 1.47207 405.474
459 1 49.0106 1.4933 403.585 49.0106 1.4933 403.585
458 1 48.7947 4.40773 406.928 48.7947 4.40773 406.928
460 1 49.6461 2.20476 405.983 49.6461 2.20476 405.983
463 1 51.3504 2.22734 404.093 51.3504 2.22734 404.093
461 1 50.4987 0.00179731 405.033 50.4987 0.00179731 405.033
464 1 51.9869 2.93737 406.487 51.9869 2.93737 406.487
465 1 52.8379 0.734006 405.538 52.8379 0.734006 405.538
468 1 54.5412 0.755304 403.648 54.5412 0.755304 403.648
466 1 53.693 2.96021 404.592 53.693 2.96021 404.592
469 1 55.1771 1.46658 406.046 55.1771 1.46658 406.046
467 1 54.3259 3.66953 406.991 54.3259 3.66953 406.991
470 1 56.0294 3.69109 405.096 56.0294 3.69109 405.096
472 1 56.881 1.48919 404.156 56.881 1.48919 404.156
475 1 59.2236 2.22191 404.654 59.2236 2.22191 404.654
473 1 57.5179 2.19907 406.549 57.5179 2.19907 406.549
474 1 58.3687 4.42317 405.6 58.3687 4.42317 405.6
477 1 60.0714 0.0169873 403.709 60.0714 0.0169873 403.709
481 1 62.4113 0.750708 404.217 62.4113 0.750708 404.217
478 1 60.7079 0.728161 406.107 60.7079 0.728161 406.107
479 1 61.56 2.95264 405.157 61.56 2.95264 405.157
482 1 63.0488 1.46054 406.61 63.0488 1.46054 406.61
476 1 59.8569 2.93112 407.052 59.8569 2.93112 407.052
483 1 63.8994 3.68459 405.661 63.8994 3.68459 405.661
486 1 65.6016 3.70572 403.769 65.6016 3.70572 403.769
488 1 67.0905 2.21382 405.216 67.0905 2.21382 405.216
484 1 64.7539 1.48326 404.714 64.7539 1.48326 404.714
487 1 66.2387 4.4169 406.167 66.2387 4.4169 406.167
485 1 65.388 2.19247 407.112 65.388 2.19247 407.112
490 1 67.9416 0.0117923 404.276 67.9416 0.0117923 404.276
493 1 69.4301 2.94558 405.719 69.4301 2.94558 405.719
491 1 68.5799 0.721672 406.669 68.5799 0.721672 406.669
494 1 70.2847 0.744151 404.772 70.2847 0.744151 404.772
492 1 68.7879 2.23183 403.319 68.7879 2.23183 403.319
496 1 71.1317 2.96637 403.827 71.1317 2.96637 403.827
497 1 71.7701 3.67702 406.224 71.7701 3.67702 406.224
500 1 73.4728 3.69782 404.331 73.4728 3.69782 404.331
498 1 72.6227 1.47339 405.272 72.6227 1.47339 405.272
502 1 74.3217 1.4893 403.371 74.3217 1.4893 403.371
501 1 74.1087 4.41124 406.728 74.1087 4.41124 406.728
503 1 74.9588 2.20823 405.779 74.9588 2.20823 405.779
506 1 76.657 2.23147 403.888 76.657 2.23147 403.888
507 1 77.299 2.94437 406.284 77.299 2.94437 406.284
504 1 75.8091 0.00759717 404.835 75.8091 0.00759717 404.835
508 1 78.1494 0.743006 405.337 78.1494 0.743006 405.337
510 1 79.0022 2.96908 404.39 79.0022 2.96908 404.39
512 1 79.8504 0.764524 403.445 79.8504 0.764524 403.445
514 1 81.3419 3.69867 404.889 81.3419 3.69867 404.889
516 1 82.1934 1.49648 403.949 82.1934 1.49648 403.949
513 1 80.4907 1.47443 405.84 80.4907 1.47443 405.84
511 1 79.64 3.67718 406.786 79.64 3.67718 406.786
517 1 82.8335 2.20615 406.34 82.8335 2.20615 406.34
523 1 86.0247 0.734773 405.894 86.0247 0.734773 405.894
520 1 84.5381 2.22863 404.443 84.5381 2.22863 404.443
518 1 83.6836 0.00251888 405.39 83.6836 0.00251888 405.39
522 1 85.3852 0.0233831 403.498 85.3852 0.0233831 403.498
521 1 85.1742 2.93784 406.84 85.1742 2.93784 406.84
526 1 87.7276 0.756974 404.003 87.7276 0.756974 404.003
528 1 89.2178 3.69099 405.445 89.2178 3.69099 405.445
524 1 86.8765 2.95919 404.944 86.8765 2.95919 404.944
529 1 90.0724 1.48943 404.499 90.0724 1.48943 404.499
527 1 88.3673 1.46711 406.395 88.3673 1.46711 406.395
536 1 93.9018 0.728427 406.451 93.9018 0.728427 406.451
531 1 90.9203 3.71156 403.554 90.9203 3.71156 403.554
533 1 92.411 2.22011 405 92.411 2.22011 405
532 1 91.5589 4.42336 405.95 91.5589 4.42336 405.95
535 1 93.2625 0.0177937 404.06 93.2625 0.0177937 404.06
530 1 90.7081 2.19907 406.896 90.7081 2.19907 406.896
538 1 95.6075 0.7506 404.556 95.6075 0.7506 404.556
541 1 97.0934 3.68559 406.008 97.0934 3.68559 406.008
540 1 96.4551 2.97254 403.612 96.4551 2.97254 403.612
537 1 94.7524 2.9522 405.502 94.7524 2.9522 405.502
539 1 96.2427 1.46105 406.953 96.2427 1.46105 406.953
546 1 100.29 2.21379 405.556 100.29 2.21379 405.556
544 1 98.7963 3.70859 404.119 98.7963 3.70859 404.119
542 1 97.9457 1.48284 405.058 97.9457 1.48284 405.058
547 1 101.145 0.0121145 404.61 101.145 0.0121145 404.61
545 1 99.4382 4.41738 406.507 99.4382 4.41738 406.507
553 1 104.334 2.96464 404.167 104.334 2.96464 404.167
550 1 102.631 2.94391 406.059 102.631 2.94391 406.059
554 1 104.973 3.67654 406.56 104.973 3.67654 406.56
549 1 101.999 2.23408 403.66 101.999 2.23408 403.66
551 1 103.483 0.74038 405.11 103.483 0.74038 405.11
548 1 101.78 0.720164 407.006 101.78 0.720164 407.006
560 1 -59.7824 0.692162 409.458 -59.7824 0.692162 409.458
558 1 -61.2714 2.18442 408.009 -61.2714 2.18442 408.009
562 1 -58.9308 2.9172 408.51 -58.9308 2.9172 408.51
559 1 -60.6338 2.89477 410.406 -60.6338 2.89477 410.406
556 1 -62.1232 4.38708 408.957 -62.1232 4.38708 408.957
273 1 -58.0805 0.715165 407.563 -58.0805 0.715165 407.563
565 1 -56.59 3.64882 409.012 -56.59 3.64882 409.012
568 1 -55.1006 2.15622 410.462 -55.1006 2.15622 410.462
567 1 -55.7387 1.44573 408.065 -55.7387 1.44573 408.065
564 1 -57.4415 1.4242 409.96 -57.4415 1.4242 409.96
563 1 -58.2929 3.62691 410.907 -58.2929 3.62691 410.907
573 1 -51.9066 0.684901 410.02 -51.9066 0.684901 410.02
571 1 -53.3963 2.17633 408.57 -53.3963 2.17633 408.57
283 1 -52.5431 4.39878 407.624 -52.5431 4.39878 407.624
569 1 -54.2487 4.38023 409.515 -54.2487 4.38023 409.515
574 1 -51.0537 2.9087 409.075 -51.0537 2.9087 409.075
572 1 -52.759 2.88851 410.966 -52.759 2.88851 410.966
576 1 -50.2007 0.704819 408.129 -50.2007 0.704819 408.129
578 1 -48.7112 3.64153 409.579 -48.7112 3.64153 409.579
289 1 -49.3478 2.92963 407.184 -49.3478 2.92963 407.184
580 1 -47.8584 1.43829 408.632 -47.8584 1.43829 408.632
577 1 -49.5641 1.41737 410.524 -49.5641 1.41737 410.524
293 1 -47.0059 3.66297 407.686 -47.0059 3.66297 407.686
299 1 -43.8105 2.19142 407.241 -43.8105 2.19142 407.241
583 1 -45.5158 2.17051 409.134 -45.5158 2.17051 409.134
585 1 -44.663 4.39482 408.188 -44.663 4.39482 408.188
582 1 -46.3686 4.37373 410.081 -46.3686 4.37373 410.081
586 1 -44.0262 0.678078 410.583 -44.0262 0.678078 410.583
589 1 -42.3206 0.69902 408.69 -42.3206 0.69902 408.69