ITEM: TIMESTEP
0
ITEM: NUMBER OF ATOMS
4630
ITEM: BOX BOUNDS xy xz yz pp pp pp
-6.2453501865566054e+01 1.0547253371376605e+02 0.0000000000000000e+00
0.0000000000000000e+00 4.4274527100805940e+00 0.0000000000000000e+00
3.8000000000000000e+02 5.0000000000000000e+02 0.0000000000000000e+00
ITEM: ATOMS id type x y z xu yu zu
7 1 -58.3043 3.0038 398.738 -58.3043 3.0038 398.738
27 1 -44.9685 2.29197 399.267 -44.9685 2.29197 399.267
36 1 -39.4165 1.54902 399.323 -39.4165 1.54902 399.323
45 1 -33.8691 0.808603 399.384 -33.8691 0.808603 399.384
85 1 -8.49703 0.807514 399.212 -8.49703 0.807514 399.212
94 1 -2.94668 0.0649319 399.275 -2.94668 0.0649319 399.275
103 1 2.59759 3.7534 399.342 2.59759 3.7534 399.342
112 1 8.13939 3.01513 399.41 8.13939 3.01513 399.41
152 1 33.4766 3.02915 399.253 33.4766 3.02915 399.253
161 1 39.0197 2.28886 399.315 39.0197 2.28886 399.315
170 1 44.5577 1.55145 399.379 44.5577 1.55145 399.379
227 1 80.9631 0.0838794 399.306 80.9631 0.0838794 399.306
236 1 86.5094 3.76934 399.358 86.5094 3.76934 399.358
245 1 92.0517 3.03036 399.414 92.0517 3.03036 399.414
5 1 -59.2136 0.785985 399.536 -59.2136 0.785985 399.536
2 1 -60.961 0.797522 401.345 -60.961 0.797522 401.345
3 1 -60.1246 3.0104 400.428 -60.1246 3.0104 400.428
1 1 -61.7948 2.9761 402.298 106.131 2.9761 402.298
4 1 -59.4559 3.71976 402.78 -59.4559 3.71976 402.78
9 1 -56.8401 1.4447 399.996 -56.8401 1.4447 399.996
8 1 -57.7105 3.70332 400.962 -57.7105 3.70332 400.962
10 1 -56.2345 2.21149 402.369 -56.2345 2.21149 402.369
6 1 -58.5927 1.50895 401.842 -58.5927 1.50895 401.842
11 1 -55.3856 0.0106662 401.448 -55.3856 0.0106662 401.448
12 1 -54.5335 2.26581 400.486 -54.5335 2.26581 400.486
16 1 -52.1764 2.95776 400.945 -52.1764 2.95776 400.945
15 1 -53.0367 0.751405 401.936 -53.0367 0.751405 401.936
14 1 -53.7083 0.0673942 399.639 -53.7083 0.0673942 399.639
17 1 -51.3289 0.75857 400.08 -51.3289 0.75857 400.08
13 1 -53.8839 2.95181 402.85 -53.8839 2.95181 402.85
22 1 -48.1328 3.73225 399.678 -48.1328 3.73225 399.678
20 1 -48.9875 1.51214 400.535 -48.9875 1.51214 400.535
19 1 -49.852 3.70043 401.477 -49.852 3.70043 401.477
18 1 -50.6935 1.47943 402.423 -50.6935 1.47943 402.423
21 1 -48.3624 2.22573 402.922 -48.3624 2.22573 402.922
23 1 -47.5067 0.0249492 401.997 -47.5067 0.0249492 401.997
26 1 -45.1518 0.754014 402.468 -45.1518 0.754014 402.468
24 1 -46.6639 2.24445 401.06 -46.6639 2.24445 401.06
28 1 -44.3019 2.97688 401.558 -44.3019 2.97688 401.558
25 1 -45.8006 0.063056 400.114 -45.8006 0.063056 400.114
29 1 -43.4387 0.752721 400.568 -43.4387 0.752721 400.568
31 1 -42.5866 2.981 399.706 -42.5866 2.981 399.706
34 1 -40.2496 3.74792 400.168 -40.2496 3.74792 400.168
32 1 -41.9552 3.70698 402.049 -41.9552 3.70698 402.049
33 1 -41.1181 1.50238 401.112 -41.1181 1.50238 401.112
30 1 -42.8163 1.48157 402.974 -42.8163 1.48157 402.974
35 1 -39.6046 0.0131481 402.524 -39.6046 0.0131481 402.524
40 1 -37.0372 2.2398 399.765 -37.0372 2.2398 399.765
37 1 -38.7551 2.23536 401.615 -38.7551 2.23536 401.615
41 1 -36.4086 2.96605 402.109 -36.4086 2.96605 402.109
38 1 -37.8893 0.0113426 400.627 -37.8893 0.0113426 400.627
39 1 -37.2701 0.740976 403.034 -37.2701 0.740976 403.034
43 1 -34.7018 3.0075 400.23 -34.7018 3.0075 400.23
42 1 -35.5703 0.761729 401.173 -35.5703 0.761729 401.173
44 1 -34.0582 3.69977 402.586 -34.0582 3.69977 402.586
46 1 -33.2083 1.49464 401.677 -33.2083 1.49464 401.677
47 1 -32.3424 3.69826 400.689 -32.3424 3.69826 400.689
49 1 -31.4902 1.49924 399.828 -31.4902 1.49924 399.828
52 1 -29.1554 2.26689 400.292 -29.1554 2.26689 400.292
50 1 -30.8624 2.22534 402.172 -30.8624 2.22534 402.172
51 1 -30.0241 0.0211046 401.236 -30.0241 0.0211046 401.236
53 1 -28.5125 2.9589 402.649 -28.5125 2.9589 402.649
54 1 -28.323 0.0679492 399.447 -28.323 0.0679492 399.447
48 1 -31.7242 0.000212739 403.096 -31.7242 0.000212739 403.096
58 1 -25.9444 0.75835 399.891 -25.9444 0.75835 399.891
59 1 -25.3171 1.48437 402.236 -25.3171 1.48437 402.236
56 1 -26.7965 2.95744 400.752 -26.7965 2.95744 400.752
55 1 -27.6626 0.753766 401.74 -27.6626 0.753766 401.74
60 1 -24.4787 3.70763 401.3 -24.4787 3.70763 401.3
57 1 -26.1789 3.68671 403.16 -26.1789 3.68671 403.16
61 1 -23.6102 1.52595 400.356 -23.6102 1.52595 400.356
63 1 -22.7781 3.75443 399.511 -22.7781 3.75443 399.511
62 1 -22.9676 2.21767 402.714 -22.9676 2.21767 402.714
64 1 -22.1176 0.0125062 401.805 -22.1176 0.0125062 401.805
65 1 -21.2518 2.21613 400.816 -21.2518 2.21613 400.816
66 1 -20.6345 2.94533 403.225 -20.6345 2.94533 403.225
70 1 -18.0661 0.7843 400.421 -18.0661 0.7843 400.421
68 1 -19.7726 0.742951 402.3 -19.7726 0.742951 402.3
69 1 -18.9348 2.96599 401.365 -18.9348 2.96599 401.365
67 1 -20.3996 0.0169795 399.955 -20.3996 0.0169795 399.955
72 1 -17.2362 3.01242 399.574 -17.2362 3.01242 399.574
71 1 -17.4229 1.47609 402.778 -17.4229 1.47609 402.778
75 1 -14.859 3.70323 400.018 -14.859 3.70323 400.018
74 1 -15.708 1.47506 400.88 -15.708 1.47506 400.88
73 1 -16.5745 3.69811 401.868 -16.5745 3.69811 401.868
76 1 -14.228 4.42395 402.359 -14.228 4.42395 402.359
77 1 -13.3838 2.21681 401.415 -13.3838 2.21681 401.415
348 1 -15.0871 2.20095 403.284 -15.0871 2.20095 403.284
80 1 -11.6617 2.24818 399.619 -11.6617 2.24818 399.619
81 1 -11.0387 2.96829 401.939 -11.0387 2.96829 401.939
78 1 -12.5178 0.0281864 400.475 -12.5178 0.0281864 400.475
79 1 -11.8961 0.741942 402.862 -11.8961 0.741942 402.862
83 1 -9.33004 3.0061 400.058 -9.33004 3.0061 400.058
82 1 -10.1946 0.760139 401.003 -10.1946 0.760139 401.003
87 1 -6.96885 3.69568 400.515 -6.96885 3.69568 400.515
84 1 -8.68417 3.6971 402.413 -8.68417 3.6971 402.413
86 1 -7.8332 1.49239 401.504 -7.8332 1.49239 401.504
89 1 -6.11582 1.49648 399.654 -6.11582 1.49648 399.654
90 1 -5.48739 2.2226 401.998 -5.48739 2.2226 401.998
88 1 -6.34947 4.42464 402.922 -6.34947 4.42464 402.922
92 1 -3.78002 2.26382 400.119 -3.78002 2.26382 400.119
93 1 -3.13775 2.9563 402.477 -3.13775 2.9563 402.477
91 1 -4.64938 0.0181233 401.062 -4.64938 0.0181233 401.062
96 1 -1.42091 2.95489 400.581 -1.42091 2.95489 400.581
95 1 -2.28762 0.751184 401.568 -2.28762 0.751184 401.568
98 1 -0.568293 0.755924 399.72 -0.568293 0.755924 399.72
100 1 0.896292 3.70605 401.13 0.896292 3.70605 401.13
99 1 0.0574583 1.48249 402.065 0.0574583 1.48249 402.065
97 1 -0.804628 3.68461 402.989 -0.804628 3.68461 402.989
101 1 1.76528 1.52477 400.187 1.76528 1.52477 400.187
102 1 2.40641 2.21661 402.545 2.40641 2.21661 402.545
105 1 4.12321 2.21599 400.649 4.12321 2.21599 400.649
104 1 3.25661 0.0118289 401.636 3.25661 0.0118289 401.636
108 1 5.6005 0.743603 402.134 5.6005 0.743603 402.134
107 1 4.97543 0.017035 399.788 4.97543 0.017035 399.788
106 1 4.73855 2.94543 403.058 4.73855 2.94543 403.058
110 1 7.30786 0.786493 400.256 7.30786 0.786493 400.256
111 1 7.94864 1.47785 402.614 7.94864 1.47785 402.614
109 1 6.43918 2.96752 401.2 6.43918 2.96752 401.2
113 1 8.79856 3.70072 401.705 8.79856 3.70072 401.705
114 1 9.66499 1.47772 400.718 9.66499 1.47772 400.718
116 1 10.5168 3.70621 399.857 10.5168 3.70621 399.857
118 1 11.98 2.22952 401.269 11.98 2.22952 401.269
117 1 11.1415 0.00533958 402.204 11.1415 0.00533958 402.204
121 1 13.679 2.27729 399.479 13.679 2.27729 399.479
120 1 13.489 0.739606 402.684 13.489 0.739606 402.684
119 1 12.8483 0.0486684 400.325 12.8483 0.0486684 400.325
115 1 10.2799 2.20697 403.128 10.2799 2.20697 403.128
122 1 14.3386 2.96262 401.775 14.3386 2.96262 401.775
123 1 15.2047 0.739832 400.787 15.2047 0.739832 400.787
125 1 16.0561 2.96828 399.926 16.0561 2.96828 399.926
126 1 16.6807 3.69488 402.273 16.6807 3.69488 402.273
127 1 17.5188 1.49182 401.339 17.5188 1.49182 401.339
124 1 15.8195 1.46893 403.198 15.8195 1.46893 403.198
130 1 19.2165 1.53968 399.548 19.2165 1.53968 399.548
128 1 18.3866 3.73852 400.394 18.3866 3.73852 400.394
129 1 19.0276 0.00156088 402.754 19.0276 0.00156088 402.754
131 1 19.8768 2.22464 401.844 19.8768 2.22464 401.844
132 1 20.7424 0.0019171 400.856 20.7424 0.0019171 400.856
133 1 21.3574 0.730894 403.267 21.3574 0.730894 403.267
134 1 21.5933 2.23032 399.994 21.5933 2.23032 399.994
136 1 23.0555 0.7537 401.408 23.0555 0.7537 401.408
135 1 22.2184 2.95688 402.342 22.2184 2.95688 402.342
139 1 24.7502 0.80124 399.615 24.7502 0.80124 399.615
137 1 23.9231 3.00045 400.462 23.9231 3.00045 400.462
138 1 24.5653 3.69088 402.821 24.5653 3.69088 402.821
141 1 26.2784 3.69186 400.922 26.2784 3.69186 400.922
140 1 25.4126 1.48627 401.911 25.4126 1.48627 401.911
142 1 27.1259 1.49267 400.059 27.1259 1.49267 400.059
143 1 27.7557 2.21371 402.403 27.7557 2.21371 402.403
144 1 28.5991 0.00775337 401.46 28.5991 0.00775337 401.46
145 1 29.4636 2.24737 400.518 29.4636 2.24737 400.518
147 1 30.3168 0.0399004 399.661 30.3168 0.0399004 399.661
146 1 30.0847 2.96043 402.907 30.0847 2.96043 402.907
150 1 32.6461 0.800177 400.101 32.6461 0.800177 400.101
148 1 30.9406 0.760352 401.983 30.9406 0.760352 401.983
149 1 31.7834 2.98096 401.047 31.7834 2.98096 401.047
153 1 34.142 3.7133 401.547 34.142 3.7133 401.547
151 1 33.2926 1.48977 402.457 33.2926 1.48977 402.457
156 1 35.8566 3.71836 399.695 35.8566 3.71836 399.695
154 1 35.0052 1.49005 400.557 35.0052 1.49005 400.557
157 1 36.485 0.0172646 402.041 36.485 0.0172646 402.041
155 1 35.6244 2.21851 402.967 35.6244 2.21851 402.967
158 1 37.3217 2.24123 401.106 37.3217 2.24123 401.106
159 1 38.1894 0.060234 400.161 38.1894 0.060234 400.161
162 1 39.681 2.97428 401.609 39.681 2.97428 401.609
160 1 38.8325 0.751305 402.519 38.8325 0.751305 402.519
163 1 40.5465 0.751445 400.621 40.5465 0.751445 400.621
165 1 41.3972 2.97994 399.759 41.3972 2.97994 399.759
164 1 41.1632 1.4805 403.031 41.1632 1.4805 403.031
168 1 43.7283 3.75026 400.226 43.7283 3.75026 400.226
167 1 42.8611 1.50349 401.171 42.8611 1.50349 401.171
166 1 42.0237 3.70651 402.106 42.0237 3.70651 402.106
169 1 44.3709 0.0132648 402.584 44.3709 0.0132648 402.584
171 1 45.2195 2.23647 401.674 45.2195 2.23647 401.674
174 1 46.9349 2.24239 399.823 46.9349 2.24239 399.823
175 1 47.5615 2.96876 402.17 47.5615 2.96876 402.17
172 1 46.0846 0.0139134 400.685 46.0846 0.0139134 400.685
173 1 46.7013 0.742592 403.096 46.7013 0.742592 403.096
177 1 49.2656 3.01272 400.289 49.2656 3.01272 400.289
176 1 48.3987 0.76589 401.235 48.3987 0.76589 401.235
179 1 50.0944 0.813882 399.442 50.0944 0.813882 399.442
181 1 51.6216 3.70363 400.749 51.6216 3.70363 400.749
178 1 49.9085 3.70283 402.648 49.9085 3.70283 402.648
180 1 50.7568 1.49865 401.737 50.7568 1.49865 401.737
183 1 52.4716 1.50463 399.886 52.4716 1.50463 399.886
184 1 53.0986 2.23084 402.233 53.0986 2.23084 402.233
186 1 54.8021 2.27484 400.352 54.8021 2.27484 400.352
187 1 55.4455 2.96473 402.711 55.4455 2.96473 402.711
188 1 55.6305 0.0759669 399.504 55.6305 0.0759669 399.504
185 1 53.9355 0.0280104 401.298 53.9355 0.0280104 401.298
182 1 52.2386 0.00461676 403.159 52.2386 0.00461676 403.159
189 1 56.2935 0.76055 401.8 56.2935 0.76055 401.8
192 1 58.0078 0.766524 399.948 58.0078 0.766524 399.948
194 1 59.4719 3.71721 401.359 59.4719 3.71721 401.359
193 1 58.6352 1.4926 402.295 58.6352 1.4926 402.295
190 1 57.158 2.96556 400.811 57.158 2.96556 400.811
191 1 57.7755 3.69383 403.221 57.7755 3.69383 403.221
195 1 60.3382 1.53654 400.413 60.3382 1.53654 400.413
197 1 61.1662 3.76509 399.566 61.1662 3.76509 399.566
199 1 62.6941 2.22708 400.871 62.6941 2.22708 400.871
196 1 60.9821 2.2263 402.772 60.9821 2.2263 402.772
198 1 61.8298 0.0220846 401.861 61.8298 0.0220846 401.861
200 1 63.3121 2.95525 403.282 63.3121 2.95525 403.282
202 1 64.1715 0.753962 402.356 64.1715 0.753962 402.356
201 1 63.5435 0.0279854 400.008 63.5435 0.0279854 400.008
206 1 66.7016 3.02631 399.625 66.7016 3.02631 399.625
204 1 65.8739 0.797792 400.473 65.8739 0.797792 400.473
203 1 65.0079 2.97854 401.42 65.0079 2.97854 401.42
205 1 66.5184 1.48741 402.832 66.5184 1.48741 402.832
207 1 67.366 3.71057 401.92 67.366 3.71057 401.92
209 1 69.079 3.71627 400.067 69.079 3.71627 400.067
208 1 68.2297 1.48795 400.93 68.2297 1.48795 400.93
211 1 70.5434 2.23896 401.478 70.5434 2.23896 401.478
210 1 69.7079 0.0147172 402.414 69.7079 0.0147172 402.414
212 1 71.4094 0.0581045 400.531 71.4094 0.0581045 400.531
214 1 72.235 2.28625 399.682 72.235 2.28625 399.682
217 1 74.6115 2.97706 400.122 74.6115 2.97706 400.122
216 1 73.7654 0.74886 400.987 73.7654 0.74886 400.987
215 1 72.9012 2.97081 401.977 72.9012 2.97081 401.977
213 1 72.0554 0.748008 402.889 72.0554 0.748008 402.889
218 1 75.2453 3.69748 402.465 75.2453 3.69748 402.465
220 1 76.9505 3.73072 400.577 76.9505 3.73072 400.577
219 1 76.0873 1.49133 401.52 76.0873 1.49133 401.52
222 1 77.8026 1.52319 399.719 77.8026 1.52319 399.719
223 1 78.4303 2.24318 402.039 78.4303 2.24318 402.039
221 1 77.5756 0.0160007 402.965 77.5756 0.0160007 402.965
224 1 79.2718 0.0360441 401.102 79.2718 0.0360441 401.102
225 1 80.1333 2.28243 400.154 80.1333 2.28243 400.154
229 1 82.4937 2.97186 400.606 82.4937 2.97186 400.606
228 1 81.6319 0.767953 401.597 81.6319 0.767953 401.597
226 1 80.7835 2.97207 402.509 80.7835 2.97207 402.509
231 1 83.3443 0.772678 399.743 83.3443 0.772678 399.743
234 1 85.6791 1.54078 400.205 85.6791 1.54078 400.205
233 1 84.8123 3.72215 401.15 84.8123 3.72215 401.15
235 1 86.3257 2.23221 402.562 86.3257 2.23221 402.562
232 1 83.9766 1.49858 402.088 83.9766 1.49858 402.088
230 1 83.117 3.70006 403.014 83.117 3.70006 403.014
241 1 89.5181 0.758914 402.144 89.5181 0.758914 402.144
238 1 88.0379 2.23168 400.661 88.0379 2.23168 400.661
240 1 88.8881 0.0326935 399.799 88.8881 0.0326935 399.799
237 1 87.1735 0.0274757 401.651 87.1735 0.0274757 401.651
239 1 88.6584 2.96069 403.07 88.6584 2.96069 403.07
242 1 90.3549 2.98284 401.207 90.3549 2.98284 401.207
243 1 91.2215 0.801714 400.261 91.2215 0.801714 400.261
247 1 93.5795 1.4923 400.718 93.5795 1.4923 400.718
246 1 92.7153 3.71558 401.708 92.7153 3.71558 401.708
244 1 91.8671 1.49277 402.619 91.8671 1.49277 402.619
254 1 97.5911 2.28874 399.472 97.5911 2.28874 399.472
249 1 94.4303 3.72077 399.856 94.4303 3.72077 399.856
253 1 97.4089 0.753583 402.676 97.4089 0.753583 402.676
251 1 95.8958 2.24284 401.265 95.8958 2.24284 401.265
252 1 96.7638 0.0611451 400.32 96.7638 0.0611451 400.32
250 1 95.0597 0.0194507 402.201 95.0597 0.0194507 402.201
248 1 94.1995 2.22137 403.127 94.1995 2.22137 403.127
258 1 99.9677 2.97821 399.914 99.9677 2.97821 399.914
255 1 98.2558 2.97565 401.766 98.2558 2.97565 401.766
259 1 100.597 3.71294 402.264 100.597 3.71294 402.264
260 1 101.435 1.51319 401.333 101.435 1.51319 401.333
256 1 99.1227 0.752065 400.777 99.1227 0.752065 400.777
257 1 99.7401 1.4861 403.188 99.7401 1.4861 403.188
263 1 103.132 1.55846 399.564 103.132 1.55846 399.564
261 1 102.284 3.76258 400.386 102.284 3.76258 400.386
264 1 103.819 2.23361 401.807 103.819 2.23361 401.807
265 1 104.657 0.00165904 400.839 104.657 0.00165904 400.839
262 1 102.954 0.0138755 402.729 102.954 0.0138755 402.729
266 1 105.286 0.740431 403.241 105.286 0.740431 403.241
268 1 -61.1474 3.68526 404.683 -61.1474 3.68526 404.683
271 1 -59.6585 2.19457 406.134 -59.6585 2.19457 406.134
270 1 -60.2992 1.48705 403.73 -60.2992 1.48705 403.73
267 1 -61.9983 1.45941 405.632 -61.9983 1.45941 405.632
272 1 -58.8106 4.42146 405.187 -58.8106 4.42146 405.187
269 1 -60.51 4.39621 407.082 -60.51 4.39621 407.082
277 1 -56.4623 0.7229 405.692 -56.4623 0.7229 405.692
274 1 -57.9589 2.21923 404.238 -57.9589 2.21923 404.238
278 1 -55.6034 2.94103 404.745 -55.6034 2.94103 404.745
275 1 -57.3148 2.92684 406.634 -57.3148 2.92684 406.634
276 1 -57.1036 0.00915933 403.311 -57.1036 0.00915933 403.311
279 1 -54.9686 3.65499 407.139 -54.9686 3.65499 407.139
280 1 -54.7462 0.731563 403.81 -54.7462 0.731563 403.81
286 1 -51.5507 3.68228 403.35 -51.5507 3.68228 403.35
282 1 -53.2564 3.6681 405.249 -53.2564 3.6681 405.249
284 1 -52.4008 1.46363 404.311 -52.4008 1.46363 404.311
281 1 -54.1134 1.44861 406.198 -54.1134 1.44861 406.198
285 1 -51.7683 2.18094 406.703 -51.7683 2.18094 406.703
291 1 -48.5709 0.713157 406.26 -48.5709 0.713157 406.26
288 1 -50.0615 2.2023 404.813 -50.0615 2.2023 404.813
292 1 -47.718 2.93867 405.314 -47.718 2.93867 405.314
287 1 -50.915 4.40345 405.755 -50.915 4.40345 405.755
290 1 -49.2121 4.42559 403.866 -49.2121 4.42559 403.866
294 1 -46.8631 0.736646 404.369 -46.8631 0.736646 404.369
297 1 -45.3729 3.67049 405.818 -45.3729 3.67049 405.818
296 1 -46.0126 2.95866 403.425 -46.0126 2.95866 403.425
298 1 -44.5192 1.4664 404.869 -44.5192 1.4664 404.869
295 1 -46.2261 1.44662 406.762 -46.2261 1.44662 406.762
300 1 -43.6652 3.69067 403.93 -43.6652 3.69067 403.93
306 1 -40.4666 2.21653 403.482 -40.4666 2.21653 403.482
302 1 -42.1735 2.19764 405.37 -42.1735 2.19764 405.37
304 1 -41.3163 4.4228 404.426 -41.3163 4.4228 404.426
301 1 -43.0262 4.40232 406.318 -43.0262 4.40232 406.318
305 1 -40.6815 0.706487 406.82 -40.6815 0.706487 406.82
307 1 -39.8284 2.92982 405.876 -39.8284 2.92982 405.876
310 1 -38.12 2.95003 403.989 -38.12 2.95003 403.989
312 1 -36.6287 1.45735 405.43 -36.6287 1.45735 405.43
311 1 -37.4819 3.66202 406.378 -37.4819 3.66202 406.378
308 1 -38.9738 0.7258 404.927 -38.9738 0.7258 404.927
313 1 -35.7711 3.68227 404.486 -35.7711 3.68227 404.486
315 1 -34.9207 1.47588 403.543 -34.9207 1.47588 403.543
316 1 -34.2836 2.18939 405.937 -34.2836 2.18939 405.937
317 1 -33.4286 4.41259 404.989 -33.4286 4.41259 404.989
314 1 -35.1372 4.39366 406.881 -35.1372 4.39366 406.881
319 1 -32.5743 2.20928 404.051 -32.5743 2.20928 404.051
320 1 -31.9371 2.92142 406.44 -31.9371 2.92142 406.44
324 1 -29.3751 0.735036 403.606 -29.3751 0.735036 403.606
321 1 -31.0836 0.716605 405.493 -31.0836 0.716605 405.493
322 1 -30.2258 2.94145 404.549 -30.2258 2.94145 404.549
323 1 -29.5925 3.65293 406.944 -29.5925 3.65293 406.944
325 1 -28.7387 1.44855 406 -28.7387 1.44855 406
328 1 -27.0291 1.46832 404.115 -27.0291 1.46832 404.115
326 1 -27.8835 3.67168 405.052 -27.8835 3.67168 405.052
329 1 -26.3924 2.18048 406.504 -26.3924 2.18048 406.504
330 1 -25.5387 4.40305 405.557 -25.5387 4.40305 405.557
331 1 -24.6809 2.20037 404.613 -24.6809 2.20037 404.613
337 1 -21.4844 0.727051 404.18 -21.4844 0.727051 404.18
334 1 -23.1941 0.707441 406.065 -23.1941 0.707441 406.065
335 1 -22.3389 2.93048 405.117 -22.3389 2.93048 405.117
333 1 -23.8301 4.42137 403.671 -23.8301 4.42137 403.671
338 1 -20.8478 1.43926 406.569 -20.8478 1.43926 406.569
332 1 -24.048 2.9119 407.008 -24.048 2.9119 407.008
340 1 -19.1362 1.45897 404.678 -19.1362 1.45897 404.678
342 1 -18.2859 3.67978 403.735 -18.2859 3.67978 403.735
339 1 -19.9943 3.66171 405.622 -19.9943 3.66171 405.622
344 1 -16.7935 2.18791 405.18 -16.7935 2.18791 405.18
343 1 -17.6496 4.3928 406.129 -17.6496 4.3928 406.129
341 1 -18.5033 2.17022 407.073 -18.5033 2.17022 407.073
347 1 -15.3064 0.699066 406.637 -15.3064 0.699066 406.637
349 1 -14.4528 2.92205 405.69 -14.4528 2.92205 405.69
346 1 -15.9397 4.41106 404.242 -15.9397 4.41106 404.242
350 1 -13.5987 0.720088 404.749 -13.5987 0.720088 404.749
351 1 -12.9626 1.43386 407.143 -12.9626 1.43386 407.143
353 1 -12.1084 3.65793 406.198 -12.1084 3.65793 406.198
352 1 -12.7473 2.94251 403.804 -12.7473 2.94251 403.804
354 1 -11.2545 1.45538 405.255 -11.2545 1.45538 405.255
356 1 -10.3981 3.68031 404.311 -10.3981 3.68031 404.311
358 1 -9.54625 1.47449 403.369 -9.54625 1.47449 403.369
357 1 -9.76346 4.39065 406.705 -9.76346 4.39065 406.705
363 1 -6.5628 2.91825 406.266 -6.5628 2.91825 406.266
359 1 -8.90924 2.18666 405.762 -8.90924 2.18666 405.762
362 1 -7.19929 2.20635 403.877 -7.19929 2.20635 403.877
360 1 -8.05441 4.40973 404.814 -8.05441 4.40973 404.814
364 1 -5.70922 0.713409 405.32 -5.70922 0.713409 405.32
368 1 -4.00057 0.732205 403.433 -4.00057 0.732205 403.433
366 1 -4.85111 2.93847 404.376 -4.85111 2.93847 404.376
369 1 -3.36487 1.44566 405.828 -3.36487 1.44566 405.828
367 1 -4.21869 3.64984 406.771 -4.21869 3.64984 406.771
370 1 -2.50956 3.66911 404.881 -2.50956 3.66911 404.881
372 1 -1.65507 1.46598 403.944 -1.65507 1.46598 403.944
376 1 0.692546 2.19863 404.444 0.692546 2.19863 404.444
373 1 -1.01925 2.1781 406.334 -1.01925 2.1781 406.334
374 1 -0.165495 4.401 405.387 -0.165495 4.401 405.387
379 1 2.17824 0.706066 405.897 2.17824 0.706066 405.897
378 1 1.54354 4.41994 403.502 1.54354 4.41994 403.502
377 1 1.32427 2.91014 406.84 1.32427 2.91014 406.84
383 1 4.52331 1.43872 406.403 4.52331 1.43872 406.403
380 1 3.03358 2.92953 404.95 3.03358 2.92953 404.95
382 1 3.88821 0.726547 404.013 3.88821 0.726547 404.013
384 1 5.37706 3.66172 405.457 5.37706 3.66172 405.457
385 1 6.23506 1.4595 404.513 6.23506 1.4595 404.513
387 1 7.08594 3.68102 403.571 7.08594 3.68102 403.571
388 1 7.72016 4.3945 405.967 7.72016 4.3945 405.967
386 1 6.86627 2.171 406.91 6.86627 2.171 406.91
389 1 8.57536 2.19066 405.02 8.57536 2.19066 405.02
391 1 9.4298 4.4153 404.082 9.4298 4.4153 404.082
392 1 10.0646 0.699935 406.473 10.0646 0.699935 406.473
393 1 10.9182 2.92309 405.527 10.9182 2.92309 405.527
394 1 11.7759 0.721007 404.583 11.7759 0.721007 404.583
396 1 12.6266 2.94268 403.641 12.6266 2.94268 403.641
397 1 13.2607 3.65607 406.037 13.2607 3.65607 406.037
395 1 12.407 1.43244 406.98 12.407 1.43244 406.98
398 1 14.1156 1.45233 405.09 14.1156 1.45233 405.09
400 1 14.9697 3.67709 404.152 14.9697 3.67709 404.152
401 1 15.6046 4.3891 406.544 15.6046 4.3891 406.544
402 1 16.4579 2.1849 405.597 16.4579 2.1849 405.597
403 1 17.3153 4.41034 404.653 17.3153 4.41034 404.653
405 1 18.1657 2.20465 403.711 18.1657 2.20465 403.711
406 1 18.7999 2.91797 406.107 18.7999 2.91797 406.107
409 1 20.5083 2.93905 404.222 20.5083 2.93905 404.222
410 1 21.1435 3.65103 406.613 21.1435 3.65103 406.613
407 1 19.6544 0.714253 405.159 19.6544 0.714253 405.159
404 1 17.9465 0.694285 407.05 17.9465 0.694285 407.05
412 1 22.8536 3.67227 404.722 22.8536 3.67227 404.722
411 1 21.9964 1.44681 405.666 21.9964 1.44681 405.666
415 1 24.3384 2.17914 406.175 24.3384 2.17914 406.175
414 1 23.7032 1.46647 403.779 23.7032 1.46647 403.779
416 1 25.1935 4.40243 405.226 25.1935 4.40243 405.226
413 1 23.4854 4.38325 407.119 23.4854 4.38325 407.119
418 1 26.0463 2.19893 404.287 26.0463 2.19893 404.287
419 1 26.6789 2.91418 406.684 26.6789 2.91418 406.684
420 1 26.8978 4.4173 403.329 26.8978 4.4173 403.329
421 1 27.5315 0.710566 405.737 27.5315 0.710566 405.737
422 1 28.3844 2.93688 404.796 28.3844 2.93688 404.796
424 1 29.2348 0.732795 403.85 29.2348 0.732795 403.85
426 1 30.7261 3.67321 405.302 30.7261 3.67321 405.302
425 1 29.8733 1.44758 406.246 29.8733 1.44758 406.246
430 1 32.4319 3.69394 403.415 32.4319 3.69394 403.415
428 1 31.5813 1.47144 404.357 31.5813 1.47144 404.357
429 1 32.2158 2.18125 406.753 32.2158 2.18125 406.753
432 1 33.9224 2.20186 404.861 33.9224 2.20186 404.861
431 1 33.0688 4.40548 405.809 33.0688 4.40548 405.809
435 1 35.4129 0.710519 406.313 35.4129 0.710519 406.313
436 1 36.2652 2.93391 405.366 36.2652 2.93391 405.366
434 1 34.7761 4.42673 403.923 34.7761 4.42673 403.923
440 1 37.9711 2.95414 403.477 37.9711 2.95414 403.477
438 1 37.1219 0.732225 404.421 37.1219 0.732225 404.421
439 1 37.7548 1.4429 406.818 37.7548 1.4429 406.818
442 1 39.4613 1.46352 404.925 39.4613 1.46352 404.925
441 1 38.6074 3.66688 405.874 38.6074 3.66688 405.874
444 1 40.3143 3.68851 403.987 40.3143 3.68851 403.987
446 1 41.8034 2.196 405.43 41.8034 2.196 405.43
445 1 40.951 4.39988 406.378 40.951 4.39988 406.378
450 1 43.5096 2.21616 403.542 43.5096 2.21616 403.542
451 1 44.1455 2.92891 405.938 44.1455 2.92891 405.938
448 1 42.66 4.42167 404.485 42.66 4.42167 404.485
449 1 43.2928 0.704923 406.883 43.2928 0.704923 406.883
452 1 44.9994 0.725463 404.99 44.9994 0.725463 404.99
454 1 45.8525 2.95049 404.051 45.8525 2.95049 404.051
457 1 48.198 3.68364 404.55 48.198 3.68364 404.55
455 1 46.4891 3.66179 406.443 46.4891 3.66179 406.443
456 1 47.3414 1.4579 405.495 47.3414 1.4579 405.495
459 1 49.0474 1.47821 403.607 49.0474 1.47821 403.607
458 1 48.8308 4.3942 406.947 48.8308 4.3942 406.947
460 1 49.6834 2.19076 406.003 49.6834 2.19076 406.003
463 1 51.3901 2.21244 404.115 51.3901 2.21244 404.115
461 1 50.5371 4.41481 405.054 50.5371 4.41481 405.054
464 1 52.0269 2.92357 406.506 52.0269 2.92357 406.506
465 1 52.8791 0.71972 405.558 52.8791 0.71972 405.558
468 1 54.5846 0.740103 403.669 54.5846 0.740103 403.669
466 1 53.7354 2.94549 404.613 53.7354 2.94549 404.613
469 1 55.221 1.45248 406.065 55.221 1.45248 406.065
467 1 54.3686 3.6559 407.01 54.3686 3.6559 407.01
470 1 56.0745 3.67655 405.116 56.0745 3.67655 405.116
472 1 56.9272 1.47419 404.177 56.9272 1.47419 404.177
475 1 59.2725 2.20711 404.675 59.2725 2.20711 404.675
473 1 57.5645 2.18519 406.568 57.5645 2.18519 406.568
474 1 58.4164 4.4088 405.62 58.4164 4.4088 405.62
477 1 60.1215 0.00170901 403.731 60.1215 0.00170901 403.731
481 1 62.4641 0.735645 404.238 62.4641 0.735645 404.238
478 1 60.7583 0.713992 406.127 60.7583 0.713992 406.127
479 1 61.6116 2.93804 405.177 61.6116 2.93804 405.177
482 1 63.1019 1.4466 406.629 63.1019 1.4466 406.629
476 1 59.9062 2.91743 407.072 59.9062 2.91743 407.072
483 1 63.9537 3.67016 405.681 63.9537 3.67016 405.681
486 1 65.6582 3.6904 403.791 65.6582 3.6904 403.791
488 1 67.1487 2.19918 405.237 67.1487 2.19918 405.237
484 1 64.8095 1.46841 404.735 64.8095 1.46841 404.735
487 1 66.2957 4.40269 406.186 66.2957 4.40269 406.186
485 1 65.4438 2.17873 407.132 65.4438 2.17873 407.132
490 1 68.001 4.42415 404.297 68.001 4.42415 404.297
493 1 69.491 2.93112 405.739 69.491 2.93112 405.739
491 1 68.6396 0.707698 406.688 68.6396 0.707698 406.688
494 1 70.3468 0.729277 404.793 70.3468 0.729277 404.793
492 1 68.8486 2.21612 403.341 68.8486 2.21612 403.341
496 1 71.1949 2.95103 403.849 71.1949 2.95103 403.849
497 1 71.8336 3.66281 406.244 71.8336 3.66281 406.244
500 1 73.5388 3.68277 404.352 73.5388 3.68277 404.352
498 1 72.6874 1.45877 405.293 72.6874 1.45877 405.293
502 1 74.3889 1.47367 403.393 74.3889 1.47367 403.393
501 1 74.1748 4.39717 406.748 74.1748 4.39717 406.748
503 1 75.0261 2.19365 405.799 75.0261 2.19365 405.799
506 1 76.7269 2.21589 403.909 76.7269 2.21589 403.909
507 1 77.3689 2.93004 406.304 77.3689 2.93004 406.304
504 1 75.8778 4.42 404.856 75.8778 4.42 404.856
508 1 78.2205 0.728258 405.358 78.2205 0.728258 405.358
510 1 79.0746 2.95393 404.412 79.0746 2.95393 404.412
512 1 79.924 0.748877 403.468 79.924 0.748877 403.468
514 1 81.417 3.68372 404.911 81.417 3.68372 404.911
516 1 82.2697 1.48104 403.971 82.2697 1.48104 403.971
513 1 80.5645 1.45993 405.861 80.5645 1.45993 405.861
511 1 79.7125 3.66314 406.806 79.7125 3.66314 406.806
517 1 82.9099 2.19188 406.36 82.9099 2.19188 406.36
523 1 86.1049 0.720243 405.915 86.1049 0.720243 405.915
520 1 84.6169 2.21343 404.465 84.6169 2.21343 404.465
518 1 83.7612 4.41521 405.411 83.7612 4.41521 405.411
522 1 85.4652 0.00772905 403.521 85.4652 0.00772905 403.521
521 1 85.2532 2.92378 406.861 85.2532 2.92378 406.861
526 1 87.8102 0.741574 404.026 87.8102 0.741574 404.026
528 1 89.3017 3.67626 405.467 89.3017 3.67626 405.467
524 1 86.9579 2.94423 404.965 86.9579 2.94423 404.965
529 1 90.1576 1.47428 404.521 90.1576 1.47428 404.521
527 1 88.4501 1.45285 406.416 88.4501 1.45285 406.416
536 1 93.9909 0.714256 406.473 93.9909 0.714256 406.473
531 1 91.0065 3.69594 403.577 91.0065 3.69594 403.577
533 1 92.4987 2.2052 405.022 92.4987 2.2052 405.022
532 1 91.6455 4.40888 405.972 91.6455 4.40888 405.972
535 1 93.3514 0.00243508 404.083 93.3514 0.00243508 404.083
530 1 90.7935 2.18507 406.917 90.7935 2.18507 406.917
538 1 95.6988 0.735506 404.579 95.6988 0.735506 404.579
541 1 97.1862 3.67124 406.029 97.1862 3.67124 406.029
540 1 96.5475 2.95695 403.635 96.5475 2.95695 403.635
537 1 94.8426 2.93755 405.524 94.8426 2.93755 405.524
539 1 96.3344 1.44717 406.974 96.3344 1.44717 406.974
546 1 100.387 2.1994 405.578 100.387 2.1994 405.578
544 1 98.8914 3.69333 404.142 98.8914 3.69333 404.142
542 1 98.0397 1.46805 405.08 98.0397 1.46805 405.08
547 1 101.243 4.42479 404.633 101.243 4.42479 404.633
545 1 99.5337 4.40343 406.528 99.5337 4.40343 406.528
553 1 104.436 2.94958 404.19 104.436 2.94958 404.19
550 1 102.73 2.92972 406.081 102.73 2.92972 406.081
554 1 105.075 3.6626 406.581 105.075 3.6626 406.581
549 1 102.098 2.21889 403.684 102.098 2.21889 403.684
551 1 103.584 0.725763 405.132 103.584 0.725763 405.132
548 1 101.878 0.706426 407.027 101.878 0.706426 407.027
560 1 -59.8713 0.67972 409.478 -59.8713 0.67972 409.478
558 1 -61.3618 2.17123 408.029 -61.3618 2.17123 408.029
562 1 -59.0187 2.9044 408.53 -59.0187 2.9044 408.53
559 1 -60.7239 2.8827 410.424 -60.7239 2.8827 410.424
556 1 -62.2146 4.37427 408.976 -62.2146 4.37427 408.976
273 1 -58.1672 0.702005 407.583 -58.1672 0.702005 407.583
565 1 -56.6753 3.63634 409.031 -56.6753 3.63634 409.031
568 1 -55.1845 2.14439 410.481 -55.1845 2.14439 410.481
567 1 -55.8228 1.43284 408.086 -55.8228 1.43284 408.086
564 1 -57.528 1.41211 409.979 -57.528 1.41211 409.979
563 1 -58.3805 3.6152 410.926 -58.3805 3.6152 410.926
573 1 -51.9867 0.672834 410.039 -51.9867 0.672834 410.039
571 1 -53.4778 2.16362 408.591 -53.4778 2.16362 408.591
283 1 -52.6233 4.38561 407.645 -52.6233 4.38561 407.645
569 1 -54.3314 4.36797 409.535 -54.3314 4.36797 409.535
574 1 -51.1325 2.89618 409.095 -51.1325 2.89618 409.095
572 1 -52.8403 2.87689 410.985 -52.8403 2.87689 410.985
576 1 -50.2783 0.691842 408.15 -50.2783 0.691842 408.15
578 1 -48.7875 3.62926 409.599 -48.7875 3.62926 409.599
289 1 -49.4242 2.91623 407.206 -49.4242 2.91623 407.206
580 1 -47.9335 1.42559 408.653 -47.9335 1.42559 408.653
577 1 -49.6416 1.40553 410.543 -49.6416 1.40553 410.543
293 1 -47.0798 3.64985 407.708 -47.0798 3.64985 407.708
299 1 -43.8807 2.17818 407.263 -43.8807 2.17818 407.263
583 1 -45.5884 2.1581 409.155 -45.5884 2.1581 409.155
585 1 -44.7344 4.38199 408.21 -44.7344 4.38199 408.21
582 1 -46.4423 4.36174 410.101 -46.4423 4.36174 410.101
586 1 -44.0974 0.666361 410.603 -44.0974 0.666361 410.603
589 1 -42.3895 0.68646 408.712 -42.3895 0.68646 408.712
591 1 -40.8987 3.62207 410.16 -40.8987 3.62207 410.16