ITEM: TIMESTEP
0
ITEM: NUMBER OF ATOMS
4630
ITEM: BOX BOUNDS xy xz yz pp pp pp
-6.3179734783034341e+01 1.0619876663123434e+02 0.0000000000000000e+00
0.0000000000000000e+00 4.4274527100805940e+00 0.0000000000000000e+00
3.8000000000000000e+02 5.0000000000000000e+02 0.0000000000000000e+00
ITEM: ATOMS id type x y z xu yu zu
27 1 -45.4924 2.15641 399.479 -45.4924 2.15641 399.479
36 1 -39.8969 1.41457 399.536 -39.8969 1.41457 399.536
31 1 -43.1028 2.8499 399.918 -43.1028 2.8499 399.918
22 1 -48.6837 3.60167 399.887 -48.6837 3.60167 399.887
20 1 -49.5557 1.3802 400.736 -49.5557 1.3802 400.736
40 1 -37.5095 2.10952 399.978 -37.5095 2.10952 399.978
34 1 -40.7465 3.61303 400.374 -40.7465 3.61303 400.374
17 1 -51.916 0.628835 400.286 -51.916 0.628835 400.286
9 1 -57.4751 1.31845 400.199 -57.4751 1.31845 400.199
43 1 -35.1544 2.8734 400.435 -35.1544 2.8734 400.435
12 1 -55.147 2.13194 400.683 -55.147 2.13194 400.683
5 1 -59.8563 0.648241 399.737 -59.8563 0.648241 399.737
29 1 -43.9624 0.621214 400.774 -43.9624 0.621214 400.774
853 1 -56.9045 2.7557 414.889 -56.9045 2.7557 414.889
873 1 -45.7256 1.27973 415.014 -45.7256 1.27973 415.014
865 1 -49.8144 0.532662 416.392 -49.8144 0.532662 416.392
1174 1 -37.1323 1.99579 417.958 -37.1323 1.99579 417.958
883 1 -40.135 0.540421 415.076 -40.135 0.540421 415.076
863 1 -51.3163 2.0187 414.951 -51.3163 2.0187 414.951
315 1 -35.3781 1.35604 403.732 -35.3781 1.35604 403.732
307 1 -40.3281 2.81746 406.053 -40.3281 2.81746 406.053
1150 1 -51.538 0.519001 418.273 -51.538 0.519001 418.273
855 1 -55.4029 1.26996 416.33 -55.4029 1.26996 416.33
310 1 -38.6032 2.83145 404.177 -38.6032 2.83145 404.177
871 1 -46.5881 3.48705 415.954 -46.5881 3.48705 415.954
16 1 -52.7734 2.82736 401.145 -52.7734 2.82736 401.145
309 1 -38.8256 1.33134 407.492 -38.8256 1.33134 407.492
1156 1 -48.3125 3.47398 417.834 -48.3125 3.47398 417.834
867 1 -48.9523 2.753 415.452 -48.9523 2.753 415.452
1159 1 -45.9486 4.20812 418.335 -45.9486 4.20812 418.335
1168 1 -40.3585 3.46898 418.397 -40.3585 3.46898 418.397
1170 1 -39.496 1.26167 417.457 -39.496 1.26167 417.457
594 1 -39.6881 3.5386 408.433 -39.6881 3.5386 408.433
37 1 -39.2415 2.10938 401.818 -39.2415 2.10938 401.818
851 1 -57.7658 0.534876 415.83 -57.7658 0.534876 415.83
857 1 -54.5415 3.49076 415.39 -54.5415 3.49076 415.39
592 1 -40.5504 1.31841 409.373 -40.5504 1.31841 409.373
849 1 -58.6272 2.74154 416.771 -58.6272 2.74154 416.771
877 1 -43.3614 2.0137 415.515 -43.3614 2.0137 415.515
1143 1 -56.2644 3.47661 417.271 -56.2644 3.47661 417.271
1140 1 -57.9873 3.4625 419.153 -57.9873 3.4625 419.153
845 1 -60.9901 2.00656 416.27 -60.9901 2.00656 416.27
875 1 -44.2239 4.22103 416.455 -44.2239 4.22103 416.455
886 1 -38.4101 0.553315 413.195 -38.4101 0.553315 413.195
891 1 -35.1839 3.5076 412.756 -35.1839 3.5076 412.756
39 1 -37.7451 0.618111 403.225 -37.7451 0.618111 403.225
1177 1 -35.631 0.509788 419.4 -35.631 0.509788 419.4
1167 1 -41.2208 1.24882 419.337 -41.2208 1.24882 419.337
8 1 -58.3492 3.57462 401.159 -58.3492 3.57462 401.159
869 1 -47.4504 1.26685 416.894 -47.4504 1.26685 416.894
1136 1 -60.3502 2.7275 418.653 -60.3502 2.7275 418.653
1162 1 -44.4469 2.72197 419.776 -44.4469 2.72197 419.776
15 1 -53.6405 0.62607 402.131 -53.6405 0.62607 402.131
280 1 -55.3682 0.611482 403.991 -55.3682 0.611482 403.991
277 1 -57.1034 0.609877 405.861 -57.1034 0.609877 405.861
273 1 -58.827 0.595854 407.739 -58.827 0.595854 407.739
560 1 -60.5476 0.579646 409.622 -60.5476 0.579646 409.622
557 1 -62.2699 0.564848 411.505 -62.2699 0.564848 411.505
26 1 -45.6908 0.629636 402.662 -45.6908 0.629636 402.662
294 1 -47.4193 0.61847 404.552 -47.4193 0.61847 404.552
291 1 -49.1445 0.601177 406.43 -49.1445 0.601177 406.43
576 1 -50.8694 0.587013 408.309 -50.8694 0.587013 408.309
573 1 -52.5957 0.575478 410.187 -52.5957 0.575478 410.187
570 1 -54.3202 0.562955 412.066 -54.3202 0.562955 412.066
854 1 -56.0431 0.54906 413.948 -56.0431 0.54906 413.948
305 1 -41.1894 0.597575 406.992 -41.1894 0.597575 406.992
589 1 -42.9144 0.584489 408.873 -42.9144 0.584489 408.873
586 1 -44.6395 0.571367 410.753 -44.6395 0.571367 410.753
872 1 -46.3647 0.558481 412.633 -46.3647 0.558481 412.633
599 1 -36.6852 0.566279 411.315 -36.6852 0.566279 411.315
1132 1 -62.7131 1.99263 418.152 -62.7131 1.99263 418.152
4 1 -60.1184 3.59576 402.961 -60.1184 3.59576 402.961
268 1 -61.8288 3.56674 404.849 -61.8288 3.56674 404.849
1152 1 -50.6763 2.73961 417.333 -50.6763 2.73961 417.333
19 1 -50.4287 3.57043 401.668 -50.4287 3.57043 401.668
286 1 -52.1441 3.56011 403.535 -52.1441 3.56011 403.535
282 1 -53.8682 3.55348 405.423 -53.8682 3.55348 405.423
279 1 -55.5992 3.54732 407.301 -55.5992 3.54732 407.301
565 1 -57.3241 3.53571 409.181 -57.3241 3.53571 409.181
563 1 -59.0461 3.52099 411.064 -59.0461 3.52099 411.064
846 1 -60.7685 3.50648 412.946 -60.7685 3.50648 412.946
32 1 -42.4663 3.57947 402.247 -42.4663 3.57947 402.247
300 1 -44.1936 3.57094 404.118 -44.1936 3.57094 404.118
297 1 -45.919 3.55753 405.993 -45.919 3.55753 405.993
293 1 -47.6431 3.54368 407.872 -47.6431 3.54368 407.872
578 1 -49.3681 3.53008 409.751 -49.3681 3.53008 409.751
575 1 -51.0938 3.51759 411.63 -51.0938 3.51759 411.63
860 1 -52.8183 3.50462 413.509 -52.8183 3.50462 413.509
591 1 -41.413 3.52557 410.313 -41.413 3.52557 410.313
588 1 -43.1379 3.51263 412.194 -43.1379 3.51263 412.194
874 1 -44.863 3.49982 414.074 -44.863 3.49982 414.074
10 1 -56.8648 2.08513 402.557 -56.8648 2.08513 402.557
274 1 -58.6106 2.10041 404.412 -58.6106 2.10041 404.412
271 1 -60.3291 2.08254 406.295 -60.3291 2.08254 406.295
558 1 -62.0486 2.06508 408.18 -62.0486 2.06508 408.18
24 1 -47.2122 2.11046 401.256 -47.2122 2.11046 401.256
21 1 -48.928 2.10146 403.109 -48.928 2.10146 403.109
288 1 -50.6446 2.08484 404.991 -50.6446 2.08484 404.991
285 1 -52.3697 2.07095 406.87 -52.3697 2.07095 406.87
571 1 -54.0976 2.06103 408.745 -54.0976 2.06103 408.745
568 1 -55.8222 2.04905 410.624 -55.8222 2.04905 410.624
852 1 -57.5447 2.03494 412.506 -57.5447 2.03494 412.506
848 1 -59.2672 2.02065 414.388 -59.2672 2.02065 414.388
306 1 -40.9689 2.09548 403.671 -40.9689 2.09548 403.671
302 1 -42.692 2.08313 405.549 -42.692 2.08313 405.549
299 1 -44.4163 2.07077 407.431 -44.4163 2.07077 407.431
583 1 -46.1411 2.05758 409.312 -46.1411 2.05758 409.312
581 1 -47.8664 2.04444 411.192 -47.8664 2.04444 411.192
866 1 -49.5919 2.03178 413.071 -49.5919 2.03178 413.071
880 1 -41.6364 2.02652 413.635 -41.6364 2.02652 413.635
312 1 -37.1015 1.34392 405.61 -37.1015 1.34392 405.61
2 1 -61.6335 0.661869 401.526 -61.6335 0.661869 401.526
13 1 -54.4971 2.82947 403.037 -54.4971 2.82947 403.037
278 1 -56.2345 2.82425 404.921 -56.2345 2.82425 404.921
275 1 -57.9657 2.81742 406.796 -57.9657 2.81742 406.796
562 1 -59.6868 2.80128 408.68 -59.6868 2.80128 408.68
559 1 -61.4085 2.78582 410.564 -61.4085 2.78582 410.564
1166 1 -42.0831 3.45609 420.277 -42.0831 3.45609 420.277
889 1 -36.0463 1.28742 413.697 -36.0463 1.28742 413.697
28 1 -44.8322 2.84938 401.76 -44.8322 2.84938 401.76
296 1 -46.5605 2.83681 403.613 -46.5605 2.83681 403.613
292 1 -48.2829 2.82355 405.49 -48.2829 2.82355 405.49
289 1 -50.0063 2.80785 407.371 -50.0063 2.80785 407.371
574 1 -51.7326 2.79512 409.249 -51.7326 2.79512 409.249
572 1 -53.4583 2.78325 411.127 -53.4583 2.78325 411.127
856 1 -55.1818 2.76985 413.007 -55.1818 2.76985 413.007
303 1 -42.0524 2.80444 407.932 -42.0524 2.80444 407.932
587 1 -43.777 2.79156 409.813 -43.777 2.79156 409.813
584 1 -45.5021 2.7786 411.693 -45.5021 2.7786 411.693
870 1 -47.2274 2.76584 413.573 -47.2274 2.76584 413.573
6 1 -59.2433 1.38092 402.034 -59.2433 1.38092 402.034
270 1 -60.9725 1.36628 403.901 -60.9725 1.36628 403.901
267 1 -62.6874 1.34404 405.794 -62.6874 1.34404 405.794
890 1 -35.4074 2.00865 416.078 -35.4074 2.00865 416.078
18 1 -51.2775 1.35395 402.615 -51.2775 1.35395 402.615
284 1 -53.0034 1.34581 404.491 -53.0034 1.34581 404.491
281 1 -54.7346 1.33731 406.365 -54.7346 1.33731 406.365
567 1 -56.4627 1.32881 408.241 -56.4627 1.32881 408.241
564 1 -58.1852 1.31472 410.123 -58.1852 1.31472 410.123
561 1 -59.9073 1.29996 412.005 -59.9073 1.29996 412.005
844 1 -61.63 1.28567 413.888 -61.63 1.28567 413.888
33 1 -41.6225 1.37041 401.309 -41.6225 1.37041 401.309
30 1 -43.3359 1.35752 403.165 -43.3359 1.35752 403.165
298 1 -45.0565 1.35015 405.049 -45.0565 1.35015 405.049
295 1 -46.7807 1.33712 406.932 -46.7807 1.33712 406.932
580 1 -48.5054 1.32284 408.812 -48.5054 1.32284 408.812
577 1 -50.2311 1.30996 410.69 -50.2311 1.30996 410.69
862 1 -51.9563 1.29747 412.569 -51.9563 1.29747 412.569
590 1 -42.2753 1.30541 411.254 -42.2753 1.30541 411.254
876 1 -44.0004 1.29249 413.134 -44.0004 1.29249 413.134
1163 1 -43.5847 0.514741 418.836 -43.5847 0.514741 418.836
1153 1 -50.0363 3.46043 419.715 -50.0363 3.46043 419.715
311 1 -37.9627 3.55205 406.553 -37.9627 3.55205 406.553
42 1 -36.0307 0.630563 401.37 -36.0307 0.630563 401.37
1135 1 -61.2117 0.506794 419.594 -61.2117 0.506794 419.594
1171 1 -38.8571 1.98294 419.838 -38.8571 1.98294 419.838
1139 1 -58.8487 1.24175 420.094 -58.8487 1.24175 420.094
601 1 -35.8228 2.78645 410.375 -35.8228 2.78645 410.375
313 1 -36.2358 3.56583 404.672 -36.2358 3.56583 404.672
858 1 -53.68 1.28402 414.449 -53.68 1.28402 414.449
868 1 -48.0899 0.545759 414.513 -48.0899 0.545759 414.513
1147 1 -53.9013 4.21164 417.772 -53.9013 4.21164 417.772
843 1 -62.4914 3.49238 414.829 -62.4914 3.49238 414.829
593 1 -39.9114 2.03943 411.754 -39.9114 2.03943 411.754
308 1 -39.4652 0.610348 405.109 -39.4652 0.610348 405.109
861 1 -52.1781 4.22561 415.891 -52.1781 4.22561 415.891
1158 1 -46.8107 1.98781 419.275 -46.8107 1.98781 419.275
884 1 -39.2725 2.76059 414.136 -39.2725 2.76059 414.136
881 1 -40.9974 2.74773 416.016 -40.9974 2.74773 416.016
885 1 -38.6336 3.48182 416.517 -38.6336 3.48182 416.517
859 1 -53.0398 2.00493 416.832 -53.0398 2.00493 416.832
596 1 -38.1866 2.05236 409.874 -38.1866 2.05236 409.874
879 1 -41.8599 0.527596 416.956 -41.8599 0.527596 416.956
1172 1 -37.9947 4.20309 418.898 -37.9947 4.20309 418.898
1154 1 -49.1745 1.25353 418.774 -49.1745 1.25353 418.774
887 1 -37.7712 1.27452 415.577 -37.7712 1.27452 415.577
597 1 -37.5476 2.7735 412.255 -37.5476 2.7735 412.255
1161 1 -45.0863 2.00089 417.395 -45.0863 2.00089 417.395
1138 1 -59.4887 0.520782 417.712 -59.4887 0.520782 417.712
1149 1 -52.3997 2.72576 419.214 -52.3997 2.72576 419.214
41 1 -36.8752 2.83969 402.308 -36.8752 2.83969 402.308
888 1 -36.9087 3.49469 414.637 -36.9087 3.49469 414.637
1165 1 -42.7223 2.73491 417.896 -42.7223 2.73491 417.896
1141 1 -57.1258 1.25582 418.212 -57.1258 1.25582 418.212
1145 1 -54.7628 1.99086 418.713 -54.7628 1.99086 418.713
600 1 -36.4621 2.06526 407.993 -36.4621 2.06526 407.993
1148 1 -53.2612 0.505027 420.154 -53.2612 0.505027 420.154
882 1 -40.7739 4.24668 412.695 -40.7739 4.24668 412.695
1157 1 -47.6727 4.19485 420.216 -47.6727 4.19485 420.216
1144 1 -55.6243 4.19753 419.654 -55.6243 4.19753 419.654
602 1 -34.9603 0.579287 409.435 -34.9603 0.579287 409.435
1131 1 -62.9347 0.492878 421.476 -62.9347 0.492878 421.476
1755 1 -35.4387 2.66078 428.425 -35.4387 2.66078 428.425
1460 1 -39.9425 2.69119 424.1 -39.9425 2.69119 424.1
2308 1 -49.6424 3.33046 437.77 -49.6424 3.33046 437.77
2316 1 -44.6955 1.87226 435.448 -44.6955 1.87226 435.448
2312 1 -47.2797 4.06527 438.271 -47.2797 4.06527 438.271
1464 1 -37.579 3.42545 424.602 -37.579 3.42545 424.602
1461 1 -39.0803 0.483986 423.16 -39.0803 0.483986 423.16
2039 1 -38.2469 3.35527 434.568 -38.2469 3.35527 434.568
2613 1 -40.1917 1.8421 439.773 -40.1917 1.8421 439.773
1467 1 -35.2156 4.15973 425.103 -35.2156 4.15973 425.103
2603 1 -45.7783 2.57941 439.712 -45.7783 2.57941 439.712
1443 1 -49.3963 4.18123 422.097 -49.3963 4.18123 422.097
1748 1 -39.3032 3.41234 426.482 -39.3032 3.41234 426.482
2023 1 -47.0583 1.13752 434.948 -47.0583 1.13752 434.948
2310 1 -48.141 1.84462 439.211 -48.141 1.84462 439.211
1151 1 -50.898 1.2398 420.655 -50.898 1.2398 420.655
2303 1 -52.8664 0.374932 438.211 -52.8664 0.374932 438.211
2299 1 -55.2292 4.06748 437.71 -55.2292 4.06748 437.71
2033 1 -41.4713 0.400092 435.008 -41.4713 0.400092 435.008
1433 1 -54.9843 0.490968 422.036 -54.9843 0.490968 422.036
1430 1 -56.7072 0.476911 423.918 -56.7072 0.476911 423.918
1426 1 -58.4302 0.462874 425.799 -58.4302 0.462874 425.799
1713 1 -60.1531 0.44886 427.681 -60.1531 0.44886 427.681
1710 1 -61.8759 0.434867 429.563 -61.8759 0.434867 429.563
2330 1 -36.1062 2.59053 438.392 -36.1062 2.59053 438.392
1160 1 -45.309 0.501664 420.717 -45.309 0.501664 420.717
1447 1 -47.0329 0.488263 422.597 -47.0329 0.488263 422.597
1444 1 -48.7564 0.474592 424.478 -48.7564 0.474592 424.478
1730 1 -50.4796 0.460754 426.36 -50.4796 0.460754 426.36
1727 1 -52.2027 0.446827 428.241 -52.2027 0.446827 428.241
1724 1 -53.9256 0.432854 430.123 -53.9256 0.432854 430.123
2008 1 -55.6484 0.41886 432.005 -55.6484 0.41886 432.005
2006 1 -57.3711 0.404861 433.887 -57.3711 0.404861 433.887
1458 1 -40.8045 0.470883 425.041 -40.8045 0.470883 425.041
1743 1 -42.5284 0.457569 426.921 -42.5284 0.457569 426.921
1740 1 -44.252 0.444052 428.803 -44.252 0.444052 428.803
2026 1 -45.9752 0.430378 430.684 -45.9752 0.430378 430.684
2022 1 -47.6983 0.416593 432.565 -47.6983 0.416593 432.565
2019 1 -49.4211 0.402739 434.447 -49.4211 0.402739 434.447
2309 1 -48.7811 1.12367 436.829 -48.7811 1.12367 436.829
1137 1 -59.7102 3.44846 421.035 -59.7102 3.44846 421.035
1421 1 -61.4332 3.43449 422.917 -61.4332 3.43449 422.917
1439 1 -51.7596 3.44657 421.596 -51.7596 3.44657 421.596
1435 1 -53.4827 3.43258 423.477 -53.4827 3.43258 423.477
1432 1 -55.2057 3.41855 425.359 -55.2057 3.41855 425.359
1719 1 -56.9286 3.40452 427.241 -56.9286 3.40452 427.241
1716 1 -58.6515 3.39049 429.122 -58.6515 3.39049 429.122
2001 1 -60.3743 3.37648 431.004 -60.3743 3.37648 431.004
1998 1 -62.097 3.36249 432.886 -62.097 3.36249 432.886
2323 1 -39.97 3.34167 436.45 -39.97 3.34167 436.45
1453 1 -43.8075 3.443 422.158 -43.8075 3.443 422.158
1450 1 -45.5313 3.42964 424.039 -45.5313 3.42964 424.039
1446 1 -47.2549 3.41604 425.92 -47.2549 3.41604 425.92
1732 1 -48.9781 3.40226 427.801 -48.9781 3.40226 427.801
1729 1 -50.7012 3.38839 429.683 -50.7012 3.38839 429.683
2014 1 -52.4241 3.37446 431.564 -52.4241 3.37446 431.564
2011 1 -54.1469 3.36049 433.446 -54.1469 3.36049 433.446
1745 1 -41.0271 3.39903 428.363 -41.0271 3.39903 428.363
1742 1 -42.7506 3.38554 430.244 -42.7506 3.38554 430.244
2028 1 -44.4739 3.3719 432.125 -44.4739 3.3719 432.125
2025 1 -46.1969 3.35815 434.007 -46.1969 3.35815 434.007
1427 1 -58.2087 1.96269 422.476 -58.2087 1.96269 422.476
1424 1 -59.9317 1.94868 424.358 -59.9317 1.94868 424.358
1711 1 -61.6546 1.93469 426.24 -61.6546 1.93469 426.24
2322 1 -40.8315 1.1211 437.39 -40.8315 1.1211 437.39
1750 1 -37.8019 1.92638 427.924 -37.8019 1.92638 427.924
1155 1 -48.5346 1.97435 421.156 -48.5346 1.97435 421.156
1441 1 -50.258 1.9606 423.037 -50.258 1.9606 423.037
1438 1 -51.9812 1.94668 424.919 -51.9812 1.94668 424.919
1725 1 -53.7042 1.9327 426.8 -53.7042 1.9327 426.8
1722 1 -55.4271 1.91869 428.682 -55.4271 1.91869 428.682
1718 1 -57.1499 1.90468 430.564 -57.1499 1.90468 430.564
2003 1 -58.8727 1.89067 432.445 -58.8727 1.89067 432.445
2000 1 -60.5954 1.87667 434.327 -60.5954 1.87667 434.327
1459 1 -40.5817 1.97002 421.719 -40.5817 1.97002 421.719
1455 1 -42.306 1.95692 423.599 -42.306 1.95692 423.599
1452 1 -44.0298 1.94359 425.48 -44.0298 1.94359 425.48
1737 1 -45.7534 1.93004 427.361 -45.7534 1.93004 427.361
1735 1 -47.4767 1.91632 429.243 -47.4767 1.91632 429.243
2020 1 -49.1997 1.90249 431.124 -49.1997 1.90249 431.124
2017 1 -50.9226 1.8886 433.006 -50.9226 1.8886 433.006
2034 1 -41.2493 1.89961 431.685 -41.2493 1.89961 431.685
2031 1 -42.9725 1.88599 433.567 -42.9725 1.88599 433.567
2029 1 -43.8341 4.09286 434.507 -43.8341 4.09286 434.507
1146 1 -54.1228 2.71173 421.095 -54.1228 2.71173 421.095
1431 1 -55.8458 2.69766 422.977 -55.8458 2.69766 422.977
1428 1 -57.5687 2.68362 424.858 -57.5687 2.68362 424.858
1715 1 -59.2916 2.66959 426.74 -59.2916 2.66959 426.74
1712 1 -61.0145 2.65559 428.622 -61.0145 2.65559 428.622
1708 1 -62.7373 2.64161 430.504 -62.7373 2.64161 430.504
1747 1 -39.5258 1.91308 429.804 -39.5258 1.91308 429.804
1449 1 -46.171 2.70873 421.657 -46.171 2.70873 421.657
1445 1 -47.8947 2.69518 423.538 -47.8947 2.69518 423.538
1442 1 -49.618 2.68141 425.419 -49.618 2.68141 425.419
1728 1 -51.3412 2.66752 427.301 -51.3412 2.66752 427.301
1726 1 -53.0641 2.65357 429.182 -53.0641 2.65357 429.182
2010 1 -54.787 2.63959 431.064 -54.787 2.63959 431.064
2007 1 -56.5098 2.62559 432.946 -56.5098 2.62559 432.946
1456 1 -41.6665 2.67798 425.981 -41.6665 2.67798 425.981
1741 1 -43.3902 2.66456 427.862 -43.3902 2.66456 427.862
1738 1 -45.1136 2.65096 429.743 -45.1136 2.65096 429.743
2024 1 -46.8368 2.63722 431.625 -46.8368 2.63722 431.625
2021 1 -48.5597 2.6234 433.506 -48.5597 2.6234 433.506
2035 1 -40.6097 2.62064 434.067 -40.6097 2.62064 434.067
1754 1 -36.0778 1.9395 426.043 -36.0778 1.9395 426.043
1423 1 -60.5717 1.22774 421.976 -60.5717 1.22774 421.976
1420 1 -62.2947 1.21379 423.858 -62.2947 1.21379 423.858
2044 1 -35.0223 1.8829 434.129 -35.0223 1.8829 434.129
1437 1 -52.6212 1.22585 422.537 -52.6212 1.22585 422.537
1434 1 -54.3442 1.21184 424.418 -54.3442 1.21184 424.418
1721 1 -56.0672 1.19781 426.3 -56.0672 1.19781 426.3
1717 1 -57.7901 1.18378 428.181 -57.7901 1.18378 428.181
1714 1 -59.5129 1.16976 430.063 -59.5129 1.16976 430.063
1999 1 -61.2357 1.15576 431.945 -61.2357 1.15576 431.945
1997 1 -62.9584 1.14178 433.827 -62.9584 1.14178 433.827
1164 1 -42.9453 1.23585 421.218 -42.9453 1.23585 421.218
1451 1 -44.6694 1.22263 423.098 -44.6694 1.22263 423.098
1448 1 -46.3931 1.20914 424.979 -46.3931 1.20914 424.979
1734 1 -48.1165 1.19544 426.86 -48.1165 1.19544 426.86
1731 1 -49.8397 1.18161 428.742 -49.8397 1.18161 428.742
2016 1 -51.5626 1.1677 430.624 -51.5626 1.1677 430.624
2012 1 -53.2855 1.15375 432.505 -53.2855 1.15375 432.505
2009 1 -55.0082 1.13978 434.387 -55.0082 1.13978 434.387
1746 1 -40.1652 1.19198 427.422 -40.1652 1.19198 427.422
1744 1 -41.8889 1.17858 429.303 -41.8889 1.17858 429.303
2030 1 -43.6123 1.16501 431.185 -43.6123 1.16501 431.185
2027 1 -45.3354 1.15131 433.066 -45.3354 1.15131 433.066
2325 1 -39.1085 1.13476 435.509 -39.1085 1.13476 435.509
1749 1 -38.6639 4.13348 428.864 -38.6639 4.13348 428.864
1425 1 -59.0702 4.16941 423.417 -59.0702 4.16941 423.417
1736 1 -46.615 4.13692 428.302 -46.615 4.13692 428.302
1142 1 -56.4858 1.97675 420.595 -56.4858 1.97675 420.595
1720 1 -56.2885 4.12541 429.623 -56.2885 4.12541 429.623
2005 1 -58.0113 4.1114 431.505 -58.0113 4.1114 431.505
2002 1 -59.734 4.09739 433.386 -59.734 4.09739 433.386
1169 1 -39.7194 4.19022 420.779 -39.7194 4.19022 420.779
1723 1 -54.5657 4.13942 427.741 -54.5657 4.13942 427.741
1440 1 -51.1196 4.16738 423.978 -51.1196 4.16738 423.978
1733 1 -48.3382 4.12314 430.183 -48.3382 4.12314 430.183
2018 1 -50.0612 4.10928 432.065 -50.0612 4.10928 432.065
2015 1 -51.784 4.09537 433.947 -51.784 4.09537 433.947
2036 1 -40.3876 4.12009 430.745 -40.3876 4.12009 430.745
2032 1 -42.111 4.10654 432.626 -42.111 4.10654 432.626
2326 1 -38.4689 1.85581 437.891 -38.4689 1.85581 437.891
1752 1 -36.9399 4.14669 426.983 -36.9399 4.14669 426.983
1457 1 -41.4439 4.17722 422.659 -41.4439 4.17722 422.659
2043 1 -35.6615 1.16169 431.747 -35.6615 1.16169 431.747
2286 1 -62.318 1.86269 436.209 -62.318 1.86269 436.209
2319 1 -42.5543 1.10735 439.272 -42.5543 1.10735 439.272
1436 1 -52.8427 4.15342 425.859 -52.8427 4.15342 425.859
1422 1 -60.7932 4.15541 425.299 -60.7932 4.15541 425.299
1173 1 -37.3558 0.496927 421.28 -37.3558 0.496927 421.28
2293 1 -58.4533 1.11183 438.151 -58.4533 1.11183 438.151
2289 1 -60.8162 0.376893 437.65 -60.8162 0.376893 437.65
2295 1 -56.9517 4.05354 439.592 -56.9517 4.05354 439.592
1465 1 -36.7168 1.21822 423.661 -36.7168 1.21822 423.661
2315 1 -44.917 0.372591 438.771 -44.917 0.372591 438.771
2331 1 -35.8841 4.08991 435.069 -35.8841 4.08991 435.069
2297 1 -56.0905 1.84678 438.651 -56.0905 1.84678 438.651
2324 1 -39.3303 4.06269 438.832 -39.3303 4.06269 438.832
2306 1 -50.5037 1.1098 438.711 -50.5037 1.1098 438.711
2285 1 -62.5387 0.362942 439.532 -62.5387 0.362942 439.532
1462 1 -38.4411 1.20519 425.542 -38.4411 1.20519 425.542
1751 1 -37.1627 2.64757 430.305 -37.1627 2.64757 430.305
2329 1 -36.7457 1.86942 436.01 -36.7457 1.86942 436.01
2042 1 -36.5234 3.36874 432.687 -36.5234 3.36874 432.687
2041 1 -37.3852 1.1483 433.628 -37.3852 1.1483 433.628
2593 1 -51.3649 3.31658 439.652 -51.3649 3.31658 439.652
2328 1 -36.9677 0.369978 439.333 -36.9677 0.369978 439.333
2301 1 -53.7277 2.5817 439.151 -53.7277 2.5817 439.151
1466 1 -35.8545 3.43841 422.721 -35.8545 3.43841 422.721
2298 1 -55.8695 3.34652 435.328 -55.8695 3.34652 435.328
2321 1 -41.693 3.32796 438.331 -41.693 3.32796 438.331
2313 1 -46.4183 1.85846 437.33 -46.4183 1.85846 437.33
2294 1 -57.5921 3.33254 437.21 -57.5921 3.33254 437.21
2304 1 -52.0052 2.59562 437.27 -52.0052 2.59562 437.27
2300 1 -54.368 1.86073 436.769 -54.368 1.86073 436.769
2290 1 -59.955 2.5976 436.709 -59.955 2.5976 436.709
2318 1 -43.1942 0.386376 436.89 -43.1942 0.386376 436.89
2327 1 -37.6073 4.07636 436.95 -37.6073 4.07636 436.95
2004 1 -58.2324 2.61159 434.828 -58.2324 2.61159 434.828
2013 1 -52.6453 1.87467 434.887 -52.6453 1.87467 434.887
2288 1 -61.4567 4.0834 435.268 -61.4567 4.0834 435.268
2037 1 -39.748 0.413701 433.127 -39.748 0.413701 433.127
1739 1 -44.8917 4.15056 426.421 -44.8917 4.15056 426.421
1753 1 -36.3007 0.440469 429.365 -36.3007 0.440469 429.365
2307 1 -50.2825 2.60952 435.388 -50.2825 2.60952 435.388
2314 1 -45.557 4.07909 436.389 -45.557 4.07909 436.389
2040 1 -38.0245 0.427168 431.246 -38.0245 0.427168 431.246
2320 1 -42.3328 2.60697 435.949 -42.3328 2.60697 435.949
2292 1 -59.0937 0.390869 435.769 -59.0937 0.390869 435.769
2311 1 -47.9197 3.34433 435.888 -47.9197 3.34433 435.888
2302 1 -53.5067 4.08143 435.828 -53.5067 4.08143 435.828
2296 1 -56.7308 1.1258 436.269 -56.7308 1.1258 436.269
1463 1 -38.2181 2.7042 422.22 -38.2181 2.7042 422.22
2287 1 -61.6775 2.58364 438.591 -61.6775 2.58364 438.591
2291 1 -59.3145 3.31858 439.092 -59.3145 3.31858 439.092
2317 1 -44.0556 2.59322 437.83 -44.0556 2.59322 437.83
2038 1 -38.8863 2.63418 432.186 -38.8863 2.63418 432.186
2305 1 -51.1439 0.388844 436.329 -51.1439 0.388844 436.329
2332 1 -35.2447 0.383604 437.451 -35.2447 0.383604 437.451
1709 1 -62.5161 4.14143 427.181 -62.5161 4.14143 427.181
1468 1 -34.9922 1.23112 421.781 -34.9922 1.23112 421.781
1454 1 -43.1679 4.16401 424.54 -43.1679 4.16401 424.54
1429 1 -57.3473 4.18345 421.535 -57.3473 4.18345 421.535
1133 1 -62.0732 2.71356 420.535 -62.0732 2.71356 420.535
1175 1 -36.4934 2.71709 420.34 -36.4934 2.71709 420.34
2616 1 -38.0507 1.07726 443.596 -38.0507 1.07726 443.596
2901 1 -39.773 1.06344 445.478 -39.773 1.06344 445.478
2907 1 -36.5495 4.01888 445.038 -36.5495 4.01888 445.038
3194 1 -37.6316 0.29855 449.302 -37.6316 0.29855 449.302
2587 1 -54.5889 0.361023 440.092 -54.5889 0.361023 440.092
2597 1 -49.0022 4.05142 440.152 -49.0022 4.05142 440.152
2584 1 -56.3112 0.34713 441.974 -56.3112 0.34713 441.974
2581 1 -58.0335 0.333264 443.856 -58.0335 0.333264 443.856
2868 1 -59.7557 0.319429 445.738 -59.7557 0.319429 445.738
2865 1 -61.4778 0.305624 447.62 -61.4778 0.305624 447.62
2601 1 -46.6395 0.358765 440.653 -46.6395 0.358765 440.653
2598 1 -48.3619 0.344929 442.535 -48.3619 0.344929 442.535
2885 1 -50.0842 0.331109 444.417 -50.0842 0.331109 444.417
2882 1 -51.8064 0.317332 446.298 -51.8064 0.317332 446.298
2879 1 -53.5284 0.303622 448.18 -53.5284 0.303622 448.18
2612 1 -40.4131 0.342468 443.096 -40.4131 0.342468 443.096
2898 1 -42.1354 0.32865 444.977 -42.1354 0.32865 444.977
2895 1 -43.8576 0.314828 446.859 -43.8576 0.314828 446.859
3180 1 -45.5796 0.301033 448.741 -45.5796 0.301033 448.741
2576 1 -61.0369 3.30464 440.973 -61.0369 3.30464 440.973
2574 1 -62.7593 3.29073 442.855 -62.7593 3.29073 442.855
2589 1 -53.0873 3.30271 441.534 -53.0873 3.30271 441.534
2586 1 -54.8096 3.28886 443.416 -54.8096 3.28886 443.416
2874 1 -56.5318 3.27505 445.297 -56.5318 3.27505 445.297
2871 1 -58.2539 3.26129 447.179 -58.2539 3.26129 447.179
3155 1 -59.9759 3.24757 449.061 -59.9759 3.24757 449.061
2607 1 -43.4157 3.31418 440.213 -43.4157 3.31418 440.213
2604 1 -45.1381 3.30036 442.094 -45.1381 3.30036 442.094
2600 1 -46.8605 3.28653 443.976 -46.8605 3.28653 443.976
2887 1 -48.5827 3.27272 445.858 -48.5827 3.27272 445.858
2884 1 -50.3047 3.25896 447.74 -50.3047 3.25896 447.74
3168 1 -52.0267 3.24527 449.622 -52.0267 3.24527 449.622
2900 1 -40.6341 3.27025 446.419 -40.6341 3.27025 446.419
2897 1 -42.3562 3.25643 448.301 -42.3562 3.25643 448.301
2582 1 -57.8129 1.83285 440.533 -57.8129 1.83285 440.533
2579 1 -59.5352 1.81894 442.415 -59.5352 1.81894 442.415
2866 1 -61.2575 1.80505 444.297 -61.2575 1.80505 444.297
2578 1 -60.1758 1.09788 440.033 -60.1758 1.09788 440.033
2595 1 -49.8634 1.83076 441.093 -49.8634 1.83076 441.093
2592 1 -51.5857 1.81692 442.975 -51.5857 1.81692 442.975
2880 1 -53.308 1.80312 444.857 -53.308 1.80312 444.857
2877 1 -55.0301 1.78936 446.739 -55.0301 1.78936 446.739
2873 1 -56.7522 1.77568 448.621 -56.7522 1.77568 448.621
2609 1 -41.9144 1.82832 441.654 -41.9144 1.82832 441.654
2606 1 -43.6368 1.8145 443.536 -43.6368 1.8145 443.536
2892 1 -45.359 1.80068 445.418 -45.359 1.80068 445.418
2890 1 -47.0811 1.78688 447.299 -47.0811 1.78688 447.299
3174 1 -48.8031 1.77312 449.181 -48.8031 1.77312 449.181
2618 1 -37.1894 3.29788 442.656 -37.1894 3.29788 442.656
2585 1 -55.4501 2.5678 441.033 -55.4501 2.5678 441.033
2583 1 -57.1724 2.55392 442.915 -57.1724 2.55392 442.915
2870 1 -58.8946 2.54007 444.797 -58.8946 2.54007 444.797
2867 1 -60.6167 2.52625 446.679 -60.6167 2.52625 446.679
2863 1 -62.3388 2.51246 448.56 -62.3388 2.51246 448.56
2599 1 -47.5008 2.56557 441.594 -47.5008 2.56557 441.594
2596 1 -49.2231 2.55174 443.476 -49.2231 2.55174 443.476
2883 1 -50.9453 2.53794 445.358 -50.9453 2.53794 445.358
2881 1 -52.6674 2.52419 447.239 -52.6674 2.52419 447.239
3164 1 -54.3894 2.51053 449.121 -54.3894 2.51053 449.121
2610 1 -41.2743 2.54929 444.036 -41.2743 2.54929 444.036
2896 1 -42.9965 2.53546 445.918 -42.9965 2.53546 445.918
2893 1 -44.7186 2.52165 447.8 -44.7186 2.52165 447.8
3178 1 -46.4405 2.50788 449.682 -46.4405 2.50788 449.682
2575 1 -61.8981 1.08396 441.914 -61.8981 1.08396 441.914
2591 1 -52.2261 1.09592 440.593 -52.2261 1.09592 440.593
2588 1 -53.9485 1.08206 442.475 -53.9485 1.08206 442.475
2876 1 -55.6707 1.06823 444.357 -55.6707 1.06823 444.357
2872 1 -57.3928 1.05444 446.238 -57.3928 1.05444 446.238
2869 1 -59.1149 1.0407 448.12 -59.1149 1.0407 448.12
2605 1 -44.2769 1.09355 441.153 -44.2769 1.09355 441.153
2602 1 -45.9993 1.07972 443.035 -45.9993 1.07972 443.035
2889 1 -47.7216 1.0659 444.917 -47.7216 1.0659 444.917
2886 1 -49.4437 1.05211 446.799 -49.4437 1.05211 446.799
3170 1 -51.1657 1.03838 448.681 -51.1657 1.03838 448.681
2899 1 -41.4952 1.04961 447.36 -41.4952 1.04961 447.36
3184 1 -43.2171 1.03581 449.242 -43.2171 1.03581 449.242
2580 1 -58.674 4.03962 441.474 -58.674 4.03962 441.474
2577 1 -60.3963 4.02572 443.356 -60.3963 4.02572 443.356
2864 1 -62.1186 4.01185 445.237 -62.1186 4.01185 445.237
2862 1 -62.9797 1.7912 446.178 -62.9797 1.7912 446.178
2594 1 -50.7246 4.03757 442.034 -50.7246 4.03757 442.034
2590 1 -52.4469 4.02374 443.916 -52.4469 4.02374 443.916
2878 1 -54.169 4.00996 445.798 -54.169 4.00996 445.798
2875 1 -55.8911 3.99624 447.68 -55.8911 3.99624 447.68
3159 1 -57.6132 3.98259 449.562 -57.6132 3.98259 449.562
2611 1 -41.0531 4.04894 440.713 -41.0531 4.04894 440.713
2608 1 -42.7756 4.03514 442.595 -42.7756 4.03514 442.595
2894 1 -44.4979 4.02132 444.477 -44.4979 4.02132 444.477
2891 1 -46.2201 4.0075 446.359 -46.2201 4.0075 446.359
2888 1 -47.9421 3.99372 448.24 -47.9421 3.99372 448.24
2904 1 -38.2718 4.00505 446.92 -38.2718 4.00505 446.92
2621 1 -35.4667 3.31162 440.774 -35.4667 3.31162 440.774
2617 1 -37.8292 2.57685 440.273 -37.8292 2.57685 440.273
2614 1 -39.5518 2.56309 442.155 -39.5518 2.56309 442.155
2908 1 -35.9096 0.31241 447.421 -35.9096 0.31241 447.421
2619 1 -36.3281 1.09103 441.715 -36.3281 1.09103 441.715
2906 1 -36.7706 2.51921 448.361 -36.7706 2.51921 448.361
2905 1 -37.4107 1.79824 445.979 -37.4107 1.79824 445.979
2620 1 -35.6883 1.81206 444.097 -35.6883 1.81206 444.097
3190 1 -39.9938 3.99122 448.801 -39.9938 3.99122 448.801
2902 1 -39.1329 1.7844 447.86 -39.1329 1.7844 447.86
2903 1 -38.9119 3.28408 444.537 -38.9119 3.28408 444.537
2615 1 -38.6905 0.356254 441.214 -38.6905 0.356254 441.214
2909 1 -35.0485 2.53307 446.48 -35.0485 2.53307 446.48
14 1 -54.3025 4.36159 399.845 -54.3025 4.36159 399.845
7 1 -58.9516 2.86407 398.939 -58.9516 2.86407 398.939
25 1 -46.3382 4.35461 400.319 -46.3382 4.35461 400.319
38 1 -38.3701 4.30802 400.834 -38.3701 4.30802 400.834
23 1 -48.063 4.32432 402.193 -48.063 4.32432 402.193
287 1 -51.5073 4.28952 405.926 -51.5073 4.28952 405.926
878 1 -42.4989 4.23381 414.575 -42.4989 4.23381 414.575
579 1 -48.7292 4.25186 412.132 -48.7292 4.25186 412.132
585 1 -45.2786 4.27801 408.372 -45.2786 4.27801 408.372
290 1 -49.7868 4.30412 404.048 -49.7868 4.30412 404.048
11 1 -56.0074 4.30803 401.636 -56.0074 4.30803 401.636
595 1 -39.049 4.25964 410.814 -39.049 4.25964 410.814
1134 1 -61.8516 4.2133 417.211 -61.8516 4.2133 417.211
283 1 -53.2338 4.27927 407.806 -53.2338 4.27927 407.806
582 1 -47.0037 4.26469 410.252 -47.0037 4.26469 410.252
276 1 -57.7435 4.314 403.493 -57.7435 4.314 403.493
569 1 -54.9603 4.26907 409.684 -54.9603 4.26907 409.684
847 1 -60.1286 4.2273 415.329 -60.1286 4.2273 415.329
556 1 -62.9098 4.27138 409.122 -62.9098 4.27138 409.122
272 1 -59.4724 4.30644 405.354 -59.4724 4.30644 405.354
3 1 -60.7733 2.87407 400.625 -60.7733 2.87407 400.625
35 1 -40.0992 4.31742 402.72 -40.0992 4.31742 402.72
598 1 -37.3241 4.2727 408.934 -37.3241 4.2727 408.934
850 1 -58.4059 4.24149 413.447 -58.4059 4.24149 413.447