ITEM: TIMESTEP
0
ITEM: NUMBER OF ATOMS
4630
ITEM: BOX BOUNDS xy xz yz pp pp pp
-6.4216947255705932e+01 1.0723597910390593e+02 0.0000000000000000e+00
0.0000000000000000e+00 4.4274527100805940e+00 0.0000000000000000e+00
3.8000000000000000e+02 5.0000000000000000e+02 0.0000000000000000e+00
ITEM: ATOMS id type x y z xu yu zu
27 1 -46.2693 1.93783 399.783 -46.2693 1.93783 399.783
36 1 -40.6114 1.19748 399.842 -40.6114 1.19748 399.842
31 1 -43.8677 2.63679 400.221 -43.8677 2.63679 400.221
22 1 -49.4987 3.38991 400.185 -49.4987 3.38991 400.185
20 1 -50.3943 1.16696 401.024 -50.3943 1.16696 401.024
40 1 -38.2116 1.89751 400.282 -38.2116 1.89751 400.282
34 1 -41.4837 3.39569 400.669 -41.4837 3.39569 400.669
17 1 -52.7824 0.417786 400.581 -52.7824 0.417786 400.581
9 1 -58.4103 1.11204 400.489 -58.4103 1.11204 400.489
43 1 -35.8281 2.65722 400.731 -35.8281 2.65722 400.731
12 1 -56.0509 1.9163 400.966 -56.0509 1.9163 400.966
5 1 -60.8043 0.425675 400.026 -60.8043 0.425675 400.026
29 1 -44.7372 0.408236 401.07 -44.7372 0.408236 401.07
853 1 -57.8524 2.62754 415.059 -57.8524 2.62754 415.059
873 1 -46.5368 1.15253 415.194 -46.5368 1.15253 415.194
865 1 -50.6773 0.413982 416.558 -50.6773 0.413982 416.558
1174 1 -37.8418 1.88664 418.121 -37.8418 1.88664 418.121
883 1 -40.8782 0.413685 415.26 -40.8782 0.413685 415.26
863 1 -52.1961 1.89114 415.126 -52.1961 1.89114 415.126
315 1 -36.0561 1.16205 404.004 -36.0561 1.16205 404.004
307 1 -41.0646 2.63609 406.307 -41.0646 2.63609 406.307
1150 1 -52.4241 0.411856 418.422 -52.4241 0.411856 418.422
855 1 -56.3341 1.15071 416.491 -56.3341 1.15071 416.491
310 1 -39.3176 2.64003 404.447 -39.3176 2.64003 404.447
871 1 -47.4109 3.36565 416.126 -47.4109 3.36565 416.126
16 1 -53.6526 2.61619 401.43 -53.6526 2.61619 401.43
309 1 -39.5457 1.15896 407.735 -39.5457 1.15896 407.735
1156 1 -49.1586 3.36417 417.99 -49.1586 3.36417 417.99
867 1 -49.8036 2.62851 415.626 -49.8036 2.62851 415.626
1159 1 -46.7662 4.10136 418.489 -46.7662 4.10136 418.489
1168 1 -41.1076 3.36247 418.555 -41.1076 3.36247 418.555
1170 1 -40.2338 1.14944 417.622 -40.2338 1.14944 417.622
594 1 -40.4194 3.37166 408.669 -40.4194 3.37166 408.669
37 1 -39.962 1.90518 402.11 -39.962 1.90518 402.11
851 1 -58.7251 0.41231 415.992 -58.7251 0.41231 415.992
857 1 -55.4612 3.36584 415.559 -55.4612 3.36584 415.559
592 1 -41.2928 1.15707 409.601 -41.2928 1.15707 409.601
849 1 -59.598 2.62461 416.925 -59.598 2.62461 416.925
877 1 -44.1443 1.88959 415.693 -44.1443 1.88959 415.693
1143 1 -57.207 3.36303 417.424 -57.207 3.36303 417.424
1140 1 -58.9528 3.3603 419.29 -58.9528 3.3603 419.29
845 1 -61.9888 1.88618 416.427 -61.9888 1.88618 416.427
875 1 -45.0184 4.10269 416.625 -45.0184 4.10269 416.625
886 1 -39.1307 0.415265 413.395 -39.1307 0.415265 413.395
891 1 -35.8654 3.36726 412.96 -35.8654 3.36726 412.96
39 1 -38.4487 0.419869 403.499 -38.4487 0.419869 403.499
1177 1 -36.3235 0.409396 419.552 -36.3235 0.409396 419.552
1167 1 -41.9815 1.14807 419.487 -41.9815 1.14807 419.487
8 1 -59.2891 3.36568 401.441 -59.2891 3.36568 401.441
869 1 -48.2849 1.15125 417.058 -48.2849 1.15125 417.058
1136 1 -61.3438 2.62196 418.791 -61.3438 2.62196 418.791
1162 1 -45.2476 2.62401 419.92 -45.2476 2.62401 419.92
15 1 -54.5289 0.423129 402.412 -54.5289 0.423129 402.412
280 1 -56.281 0.417511 404.249 -56.281 0.417511 404.249
277 1 -58.0414 0.427462 406.103 -58.0414 0.427462 406.103
273 1 -59.7905 0.424699 407.962 -59.7905 0.424699 407.962
560 1 -61.5339 0.418724 409.829 -61.5339 0.418724 409.829
557 1 -63.2787 0.414775 411.697 -63.2787 0.414775 411.697
26 1 -46.4859 0.428503 402.941 -46.4859 0.428503 402.941
294 1 -48.2375 0.427865 404.814 -48.2375 0.427865 404.814
291 1 -49.9861 0.420825 406.675 -49.9861 0.420825 406.675
576 1 -51.7345 0.418209 408.538 -51.7345 0.418209 408.538
573 1 -53.4849 0.418593 410.399 -53.4849 0.418593 410.399
570 1 -55.2334 0.417855 412.261 -55.2334 0.417855 412.261
854 1 -56.9796 0.415306 414.126 -56.9796 0.415306 414.126
305 1 -41.9368 0.421796 407.239 -41.9368 0.421796 407.239
589 1 -43.6847 0.419963 409.104 -43.6847 0.419963 409.104
586 1 -45.4327 0.418113 410.968 -45.4327 0.418113 410.968
872 1 -47.181 0.416617 412.832 -47.181 0.416617 412.832
599 1 -37.3834 0.417099 411.53 -37.3834 0.417099 411.53
1132 1 -63.7348 1.88373 418.293 -63.7348 1.88373 418.293
4 1 -61.0891 3.39544 403.222 -61.0891 3.39544 403.222
268 1 -62.8258 3.37587 405.087 -62.8258 3.37587 405.087
1152 1 -51.5509 2.62671 417.49 -51.5509 2.62671 417.49
19 1 -51.2786 3.36082 401.942 -51.2786 3.36082 401.942
286 1 -53.0164 3.36319 403.799 -53.0164 3.36319 403.799
282 1 -54.7649 3.36861 405.672 -54.7649 3.36861 405.672
279 1 -56.5211 3.37353 407.533 -56.5211 3.37353 407.533
565 1 -58.2709 3.37341 409.395 -58.2709 3.37341 409.395
563 1 -60.0159 3.36938 411.261 -60.0159 3.36938 411.261
846 1 -61.761 3.3657 413.128 -61.761 3.3657 413.128
32 1 -43.2224 3.37409 402.531 -43.2224 3.37409 402.531
300 1 -44.9725 3.37795 404.386 -44.9725 3.37795 404.386
297 1 -46.7218 3.37533 406.244 -46.7218 3.37533 406.244
293 1 -48.4688 3.37255 408.107 -48.4688 3.37255 408.107
578 1 -50.2171 3.37026 409.97 -50.2171 3.37026 409.97
575 1 -51.9666 3.36948 411.832 -51.9666 3.36948 411.832
860 1 -53.7148 3.36823 413.694 -53.7148 3.36823 413.694
591 1 -42.1668 3.36982 410.534 -42.1668 3.36982 410.534
588 1 -43.9145 3.36823 412.398 -43.9145 3.36823 412.398
874 1 -45.6627 3.36685 414.262 -45.6627 3.36685 414.262
10 1 -57.7907 1.88161 402.828 -57.7907 1.88161 402.828
274 1 -59.5649 1.90886 404.664 -59.5649 1.90886 404.664
271 1 -61.3094 1.90196 406.526 -61.3094 1.90196 406.526
558 1 -63.0511 1.89461 408.396 -63.0511 1.89461 408.396
24 1 -48.0221 1.89526 401.537 -48.0221 1.89526 401.537
21 1 -49.7613 1.90141 403.377 -49.7613 1.90141 403.377
288 1 -51.501 1.89593 405.246 -51.501 1.89593 405.246
285 1 -53.2505 1.8939 407.109 -53.2505 1.8939 407.109
571 1 -55.0032 1.89565 408.967 -55.0032 1.89565 408.967
568 1 -56.7522 1.89537 410.829 -56.7522 1.89537 410.829
852 1 -58.4979 1.89233 412.694 -58.4979 1.89233 412.694
848 1 -60.2431 1.88904 414.56 -60.2431 1.88904 414.56
306 1 -41.711 1.89984 403.942 -41.711 1.89984 403.942
302 1 -43.4555 1.89833 405.806 -43.4555 1.89833 405.806
299 1 -45.2028 1.89748 407.672 -45.2028 1.89748 407.672
583 1 -46.9506 1.89546 409.537 -46.9506 1.89546 409.537
581 1 -48.6992 1.89361 411.401 -48.6992 1.89361 411.401
866 1 -50.4481 1.89254 413.263 -50.4481 1.89254 413.263
880 1 -42.3964 1.89096 413.829 -42.3964 1.89096 413.829
312 1 -37.8 1.16061 405.868 -37.8 1.16061 405.868
2 1 -62.6207 0.444156 401.788 -62.6207 0.444156 401.788
13 1 -55.3981 2.63154 403.304 -55.3981 2.63154 403.304
278 1 -57.159 2.63576 405.172 -57.159 2.63576 405.172
275 1 -58.917 2.64084 407.028 -58.917 2.64084 407.028
562 1 -60.6618 2.63522 408.894 -60.6618 2.63522 408.894
559 1 -62.406 2.63026 410.763 -62.406 2.63026 410.763
1166 1 -42.8553 3.36111 420.419 -42.8553 3.36111 420.419
889 1 -36.7389 1.15262 413.893 -36.7389 1.15262 413.893
28 1 -45.6156 2.64315 402.051 -45.6156 2.64315 402.051
296 1 -47.3677 2.64007 403.881 -47.3677 2.64007 403.881
292 1 -49.113 2.63801 405.743 -49.113 2.63801 405.743
289 1 -50.8594 2.63335 407.608 -50.8594 2.63335 407.608
574 1 -52.6096 2.63233 409.47 -52.6096 2.63233 409.47
572 1 -54.3596 2.63231 411.33 -54.3596 2.63231 411.33
856 1 -56.1067 2.63048 413.194 -56.1067 2.63048 413.194
303 1 -42.8113 2.63417 408.171 -42.8113 2.63417 408.171
587 1 -44.5588 2.63266 410.036 -44.5588 2.63266 410.036
584 1 -46.3068 2.63102 411.9 -46.3068 2.63102 411.9
870 1 -48.0553 2.62974 413.763 -48.0553 2.62974 413.763
6 1 -60.198 1.17422 402.309 -60.198 1.17422 402.309
270 1 -61.9582 1.17123 404.148 -61.9582 1.17123 404.148
267 1 -63.6948 1.15871 406.027 -63.6948 1.15871 406.027
890 1 -36.0944 1.88824 416.256 -36.0944 1.88824 416.256
18 1 -52.1373 1.15168 402.89 -52.1373 1.15168 402.89
284 1 -53.8879 1.15587 404.75 -53.8879 1.15587 404.75
281 1 -55.6439 1.15772 406.606 -55.6439 1.15772 406.606
567 1 -57.3973 1.16092 408.464 -57.3973 1.16092 408.464
564 1 -59.1437 1.15781 410.328 -59.1437 1.15781 410.328
561 1 -60.8884 1.15371 412.195 -60.8884 1.15371 412.195
844 1 -62.6338 1.15046 414.062 -62.6338 1.15046 414.062
33 1 -42.3698 1.15788 401.592 -42.3698 1.15788 401.592
30 1 -44.1031 1.15763 403.439 -44.1031 1.15763 403.439
298 1 -45.8473 1.16265 405.309 -45.8473 1.16265 405.309
295 1 -47.5948 1.16058 407.175 -47.5948 1.16058 407.175
580 1 -49.3428 1.15725 409.038 -49.3428 1.15725 409.038
577 1 -51.092 1.15592 410.901 -51.092 1.15592 410.901
862 1 -52.841 1.15524 412.763 -52.841 1.15524 412.763
590 1 -43.0406 1.15535 411.466 -43.0406 1.15535 411.466
876 1 -44.7886 1.15379 413.331 -44.7886 1.15379 413.331
1163 1 -44.3738 0.410993 418.988 -44.3738 0.410993 418.988
1153 1 -50.9055 3.36217 419.854 -50.9055 3.36217 419.854
311 1 -38.6719 3.37441 406.805 -38.6719 3.37441 406.805
42 1 -36.7148 0.419245 401.653 -36.7148 0.419245 401.653
1135 1 -62.2168 0.407014 419.724 -62.2168 0.407014 419.724
1171 1 -39.5893 1.88519 419.985 -39.5893 1.88519 419.985
1139 1 -59.8257 1.14528 420.223 -59.8257 1.14528 420.223
601 1 -36.51 2.63176 410.597 -36.51 2.63176 410.597
313 1 -36.9234 3.3775 404.938 -36.9234 3.3775 404.938
858 1 -54.5882 1.1534 414.626 -54.5882 1.1534 414.626
868 1 -48.9295 0.415458 414.695 -48.9295 0.415458 414.695
1147 1 -54.8157 4.10131 417.923 -54.8157 4.10131 417.923
843 1 -63.5067 3.36283 414.995 -63.5067 3.36283 414.995
593 1 -40.6487 1.89254 411.964 -40.6487 1.89254 411.964
308 1 -40.1906 0.423936 405.37 -40.1906 0.423936 405.37
861 1 -53.0695 4.10384 416.058 -53.0695 4.10384 416.058
1158 1 -47.6399 1.88685 419.421 -47.6399 1.88685 419.421
884 1 -40.0044 2.62818 414.327 -40.0044 2.62818 414.327
881 1 -41.7521 2.6267 416.192 -41.7521 2.6267 416.192
885 1 -39.36 3.36389 416.69 -39.36 3.36389 416.69
859 1 -53.9427 1.88889 416.991 -53.9427 1.88889 416.991
596 1 -38.9015 1.89429 410.099 -38.9015 1.89429 410.099
879 1 -42.626 0.412302 417.124 -42.626 0.412302 417.124
1172 1 -38.7155 4.09963 419.053 -38.7155 4.09963 419.053
1154 1 -50.0321 1.14951 418.922 -50.0321 1.14951 418.922
887 1 -38.4862 1.15093 415.758 -38.4862 1.15093 415.758
597 1 -38.257 2.62985 412.462 -38.257 2.62985 412.462
1161 1 -45.8923 1.88833 417.557 -45.8923 1.88833 417.557
1138 1 -60.4708 0.409519 417.858 -60.4708 0.409519 417.858
1149 1 -53.2973 2.62435 419.355 -53.2973 2.62435 419.355
41 1 -37.5678 2.6359 402.592 -37.5678 2.6359 402.592
888 1 -37.6126 3.36547 414.825 -37.6126 3.36547 414.825
1165 1 -43.4999 2.62538 418.056 -43.4999 2.62538 418.056
1141 1 -58.0799 1.14791 418.357 -58.0799 1.14791 418.357
1145 1 -55.6887 1.88623 418.856 -55.6887 1.88623 418.856
600 1 -37.155 1.89623 408.233 -37.155 1.89623 408.233
1148 1 -54.1703 0.409351 420.287 -54.1703 0.409351 420.287
882 1 -41.5225 4.10543 412.897 -41.5225 4.10543 412.897
1157 1 -48.5135 4.09968 420.353 -48.5135 4.09968 420.353
1144 1 -56.5616 4.09862 419.788 -56.5616 4.09862 419.788
602 1 -35.6365 0.419223 409.664 -35.6365 0.419223 409.664
1131 1 -63.9629 0.404748 421.59 -63.9629 0.404748 421.59
1755 1 -36.1366 2.61501 428.506 -36.1366 2.61501 428.506
1460 1 -40.6919 2.61945 424.213 -40.6919 2.61945 424.213
2308 1 -50.5265 3.34348 437.767 -50.5265 3.34348 437.767
2316 1 -45.5154 1.87044 435.467 -45.5154 1.87044 435.467
2312 1 -48.135 4.08112 438.265 -48.135 4.08112 438.265
1464 1 -38.2999 3.35662 424.712 -38.2999 3.35662 424.712
1461 1 -39.8183 0.406466 423.281 -39.8183 0.406466 423.281
2039 1 -38.9853 3.34726 434.599 -38.9853 3.34726 434.599
2613 1 -40.9602 1.8663 439.76 -40.9602 1.8663 439.76
1467 1 -35.9079 4.09382 425.21 -35.9079 4.09382 425.21
2603 1 -46.6166 2.60396 439.696 -46.6166 2.60396 439.696
1443 1 -50.2601 4.09761 422.218 -50.2601 4.09761 422.218
1748 1 -40.047 3.35507 426.576 -40.047 3.35507 426.576
2023 1 -47.907 1.13287 434.969 -47.907 1.13287 434.969
2310 1 -49.0082 1.86637 439.198 -49.0082 1.86637 439.198
1151 1 -51.7787 1.1473 420.786 -51.7787 1.1473 420.786
2303 1 -53.7911 0.390998 438.201 -53.7911 0.390998 438.201
2299 1 -56.1825 4.08066 437.703 -56.1825 4.08066 437.703
2033 1 -42.2504 0.395189 435.033 -42.2504 0.395189 435.033
1433 1 -55.9163 0.406785 422.153 -55.9163 0.406785 422.153
1430 1 -57.6623 0.4043 424.018 -57.6623 0.4043 424.018
1426 1 -59.4084 0.401931 425.884 -59.4084 0.401931 425.884
1713 1 -61.1546 0.399672 427.749 -61.1546 0.399672 427.749
1710 1 -62.9008 0.397505 429.615 -62.9008 0.397505 429.615
2330 1 -36.8218 2.60566 438.393 -36.8218 2.60566 438.393
1160 1 -46.1212 0.409509 420.852 -46.1212 0.409509 420.852
1447 1 -47.8682 0.407698 422.717 -47.8682 0.407698 422.717
1444 1 -49.6148 0.405604 424.581 -49.6148 0.405604 424.581
1730 1 -51.3611 0.403364 426.447 -51.3611 0.403364 426.447
1727 1 -53.1073 0.401083 428.312 -53.1073 0.401083 428.312
1724 1 -54.8535 0.398816 430.177 -54.8535 0.398816 430.177
2008 1 -56.5997 0.396585 432.043 -56.5997 0.396585 432.043
2006 1 -58.346 0.394394 433.908 -58.346 0.394394 433.908
1458 1 -41.5655 0.404939 425.145 -41.5655 0.404939 425.145
1743 1 -43.3125 0.403249 427.01 -43.3125 0.403249 427.01
1740 1 -45.0592 0.401385 428.875 -45.0592 0.401385 428.875
2026 1 -46.8057 0.399391 430.74 -46.8057 0.399391 430.74
2022 1 -48.5522 0.397322 432.605 -48.5522 0.397322 432.605
2019 1 -50.2985 0.395218 434.47 -50.2985 0.395218 434.47
2309 1 -49.6533 1.1308 436.834 -49.6533 1.1308 436.834
1137 1 -60.6987 3.35777 421.155 -60.6987 3.35777 421.155
1421 1 -62.4448 3.35544 423.021 -62.4448 3.35544 423.021
1439 1 -52.6518 3.35982 421.719 -52.6518 3.35982 421.719
1435 1 -54.3979 3.35736 423.584 -54.3979 3.35736 423.584
1432 1 -56.144 3.35493 425.449 -56.144 3.35493 425.449
1719 1 -57.8902 3.35258 427.315 -57.8902 3.35258 427.315
1716 1 -59.6363 3.35031 429.18 -59.6363 3.35031 429.18
2001 1 -61.3825 3.34812 431.046 -61.3825 3.34812 431.046
1998 1 -63.1287 3.34598 432.911 -63.1287 3.34598 432.911
2323 1 -40.732 3.34542 436.464 -40.732 3.34542 436.464
1453 1 -44.6026 3.35962 422.283 -44.6026 3.35962 422.283
1450 1 -46.3496 3.35786 424.148 -46.3496 3.35786 424.148
1446 1 -48.0962 3.35586 426.013 -48.0962 3.35586 426.013
1732 1 -49.8426 3.35372 427.878 -49.8426 3.35372 427.878
1729 1 -51.5889 3.35151 429.743 -51.5889 3.35151 429.743
2014 1 -53.3352 3.3493 431.608 -53.3352 3.3493 431.608
2011 1 -55.0814 3.34711 433.474 -55.0814 3.34711 433.474
1745 1 -41.794 3.3534 428.441 -41.794 3.3534 428.441
1742 1 -43.5407 3.35158 430.306 -43.5407 3.35158 430.306
2028 1 -45.2873 3.34964 432.171 -45.2873 3.34964 432.171
2025 1 -47.0338 3.34762 434.036 -47.0338 3.34762 434.036
1427 1 -59.1806 1.88106 422.587 -59.1806 1.88106 422.587
1424 1 -60.9266 1.8787 424.452 -60.9266 1.8787 424.452
1711 1 -62.6728 1.87647 426.318 -62.6728 1.87647 426.318
2322 1 -41.6053 1.13074 437.397 -41.6053 1.13074 437.397
1750 1 -38.5285 1.87777 428.007 -38.5285 1.87777 428.007
1155 1 -49.3868 1.88496 421.285 -49.3868 1.88496 421.285
1441 1 -51.1333 1.88275 423.15 -51.1333 1.88275 423.15
1438 1 -52.8795 1.8804 425.015 -52.8795 1.8804 425.015
1725 1 -54.6257 1.87804 426.881 -54.6257 1.87804 426.881
1722 1 -56.3719 1.87573 428.746 -56.3719 1.87573 428.746
1718 1 -58.118 1.87347 430.612 -58.118 1.87347 430.612
2003 1 -59.8642 1.87127 432.477 -59.8642 1.87127 432.477
2000 1 -61.6104 1.86911 434.342 -61.6104 1.86911 434.342
1459 1 -41.3368 1.88378 421.85 -41.3368 1.88378 421.85
1455 1 -43.0841 1.88227 423.714 -43.0841 1.88227 423.714
1452 1 -44.831 1.88056 425.579 -44.831 1.88056 425.579
1737 1 -46.5777 1.87863 427.444 -46.5777 1.87863 427.444
1735 1 -48.3242 1.87657 429.309 -48.3242 1.87657 429.309
2020 1 -50.0706 1.87444 431.174 -50.0706 1.87444 431.174
2017 1 -51.8169 1.87228 433.039 -51.8169 1.87228 433.039
2034 1 -42.0222 1.87431 431.737 -42.0222 1.87431 431.737
2031 1 -43.7688 1.87242 433.602 -43.7688 1.87242 433.602
2029 1 -44.6421 4.08516 434.535 -44.6421 4.08516 434.535
1146 1 -55.0433 2.62179 421.22 -55.0433 2.62179 421.22
1431 1 -56.7893 2.61925 423.085 -56.7893 2.61925 423.085
1428 1 -58.5354 2.61683 424.951 -58.5354 2.61683 424.951
1715 1 -60.2815 2.61452 426.816 -60.2815 2.61452 426.816
1712 1 -62.0277 2.6123 428.682 -62.0277 2.6123 428.682
1708 1 -63.7739 2.61017 430.548 -63.7739 2.61017 430.548
1747 1 -40.2755 1.8761 429.872 -40.2755 1.8761 429.872
1449 1 -46.9948 2.62237 421.784 -46.9948 2.62237 421.784
1445 1 -48.7415 2.6204 423.649 -48.7415 2.6204 423.649
1442 1 -50.488 2.61822 425.514 -50.488 2.61822 425.514
1728 1 -52.2342 2.61595 427.379 -52.2342 2.61595 427.379
1726 1 -53.9804 2.61367 429.245 -53.9804 2.61367 429.245
2010 1 -55.7266 2.61142 431.11 -55.7266 2.61142 431.11
2007 1 -57.4728 2.60921 432.975 -57.4728 2.60921 432.975
1456 1 -42.439 2.61784 426.078 -42.439 2.61784 426.078
1741 1 -44.1859 2.61606 427.942 -44.1859 2.61606 427.942
1738 1 -45.9325 2.61413 429.807 -45.9325 2.61413 429.807
2024 1 -47.679 2.61209 431.673 -47.679 2.61209 431.673
2021 1 -49.4253 2.61 433.538 -49.4253 2.61 433.538
2035 1 -41.3771 2.60986 434.1 -41.3771 2.60986 434.1
1754 1 -36.7814 1.87933 426.143 -36.7814 1.87933 426.143
1423 1 -61.5717 1.14286 422.088 -61.5717 1.14286 422.088
1420 1 -63.3179 1.14061 423.954 -63.3179 1.14061 423.954
2044 1 -35.7201 1.87179 434.165 -35.7201 1.87179 434.165
1437 1 -53.5249 1.14487 422.651 -53.5249 1.14487 422.651
1434 1 -55.271 1.14241 424.517 -55.271 1.14241 424.517
1721 1 -57.0171 1.14002 426.382 -57.0171 1.14002 426.382
1717 1 -58.7632 1.13771 428.248 -58.7632 1.13771 428.248
1714 1 -60.5094 1.13548 430.113 -60.5094 1.13548 430.113
1999 1 -62.2556 1.13332 431.979 -62.2556 1.13332 431.979
1997 1 -64.0018 1.1312 433.844 -64.0018 1.1312 433.844
1164 1 -43.729 1.14666 421.351 -43.729 1.14666 421.351
1451 1 -45.4762 1.14505 423.215 -45.4762 1.14505 423.215
1448 1 -47.223 1.14316 425.08 -47.223 1.14316 425.08
1734 1 -48.9695 1.14108 426.945 -48.9695 1.14108 426.945
1731 1 -50.7158 1.13889 428.81 -50.7158 1.13889 428.81
2016 1 -52.4621 1.13668 430.676 -52.4621 1.13668 430.676
2012 1 -54.2083 1.13448 432.541 -54.2083 1.13448 432.541
2009 1 -55.9546 1.13229 434.406 -55.9546 1.13229 434.406
1746 1 -40.9205 1.14053 427.509 -40.9205 1.14053 427.509
1744 1 -42.6674 1.13878 429.373 -42.6674 1.13878 429.373
2030 1 -44.414 1.13689 431.238 -44.414 1.13689 431.238
2027 1 -46.1605 1.13491 433.104 -46.1605 1.13491 433.104
2325 1 -39.8587 1.13263 435.531 -39.8587 1.13263 435.531
1749 1 -39.402 4.09068 428.94 -39.402 4.09068 428.94
1425 1 -60.0536 4.09358 423.52 -60.0536 4.09358 423.52
1736 1 -47.451 4.09134 428.376 -47.451 4.09134 428.376
1142 1 -57.4346 1.88357 420.721 -57.4346 1.88357 420.721
1720 1 -57.2449 4.08832 429.679 -57.2449 4.08832 429.679
2005 1 -58.9911 4.08609 431.544 -58.9911 4.08609 431.544
2002 1 -60.7373 4.08391 433.41 -60.7373 4.08391 433.41
1169 1 -40.463 4.09822 420.918 -40.463 4.09822 420.918
1723 1 -55.4988 4.0906 427.813 -55.4988 4.0906 427.813
1440 1 -52.0064 4.09531 424.083 -52.0064 4.09531 424.083
1733 1 -49.1974 4.08924 430.241 -49.1974 4.08924 430.241
2018 1 -50.9437 4.08709 432.107 -50.9437 4.08709 432.107
2015 1 -52.69 4.08493 433.972 -52.69 4.08493 433.972
2036 1 -41.1489 4.08895 430.804 -41.1489 4.08895 430.804
2032 1 -42.8956 4.0871 432.669 -42.8956 4.0871 432.669
2326 1 -39.2136 1.86821 437.895 -39.2136 1.86821 437.895
1752 1 -37.655 4.09229 427.075 -37.655 4.09229 427.075
1457 1 -42.2104 4.09678 422.782 -42.2104 4.09678 422.782
2043 1 -36.3651 1.13614 431.802 -36.3651 1.13614 431.802
2286 1 -63.3566 1.86699 436.208 -63.3566 1.86699 436.208
2319 1 -43.3518 1.12879 439.262 -43.3518 1.12879 439.262
1436 1 -53.7526 4.09294 425.948 -53.7526 4.09294 425.948
1422 1 -61.7997 4.09129 425.385 -61.7997 4.09129 425.385
1173 1 -38.0709 0.407912 421.416 -38.0709 0.407912 421.416
2293 1 -59.447 1.128 438.137 -59.447 1.128 438.137
2289 1 -61.8384 0.3901 437.639 -61.8384 0.3901 437.639
2295 1 -57.9288 4.07854 439.568 -57.9288 4.07854 439.568
1465 1 -37.4262 1.14363 423.779 -37.4262 1.14363 423.779
2315 1 -45.7434 0.391248 438.763 -45.7434 0.391248 438.763
2331 1 -36.5935 4.08465 435.098 -36.5935 4.08465 435.098
2297 1 -57.0556 1.86587 438.636 -57.0556 1.86587 438.636
2324 1 -40.0869 4.08099 438.828 -40.0869 4.08099 438.828
2306 1 -51.3997 1.12872 438.7 -51.3997 1.12872 438.7
2285 1 -63.5845 0.387967 439.505 -63.5845 0.387967 439.505
1462 1 -39.1735 1.14213 425.644 -39.1735 1.14213 425.644
1751 1 -37.8836 2.6134 430.371 -37.8836 2.6134 430.371
2329 1 -37.4669 1.87004 436.03 -37.4669 1.87004 436.03
2042 1 -37.2385 3.34902 432.734 -37.2385 3.34902 432.734
2041 1 -38.112 1.13443 433.667 -38.112 1.13443 433.667
2593 1 -52.2728 3.34141 439.632 -52.2728 3.34141 439.632
2328 1 -37.6952 0.391016 439.326 -37.6952 0.391016 439.326
2301 1 -54.6642 2.60368 439.134 -54.6642 2.60368 439.134
1466 1 -36.5526 3.3581 422.847 -36.5526 3.3581 422.847
2298 1 -56.8277 3.34494 435.339 -56.8277 3.34494 435.339
2321 1 -42.4786 3.3435 438.329 -42.4786 3.3435 438.329
2313 1 -47.2618 1.86842 437.332 -47.2618 1.86842 437.332
2294 1 -58.5739 3.3428 437.205 -58.5739 3.3428 437.205
2304 1 -52.918 2.60578 437.269 -52.918 2.60578 437.269
2300 1 -55.3094 1.86799 436.77 -55.3094 1.86799 436.77
2290 1 -60.9653 2.60489 436.706 -60.9653 2.60489 436.706
2318 1 -43.997 0.393246 436.898 -43.997 0.393246 436.898
2327 1 -38.3402 4.08286 436.962 -38.3402 4.08286 436.962
2004 1 -59.2191 2.60704 434.841 -59.2191 2.60704 434.841
2013 1 -53.5631 1.87013 434.905 -53.5631 1.87013 434.905
2288 1 -62.4835 4.08177 435.275 -62.4835 4.08177 435.275
2037 1 -40.5038 0.397057 433.168 -40.5038 0.397057 433.168
1739 1 -45.7044 4.09334 426.511 -45.7044 4.09334 426.511
1753 1 -37.0101 0.40049 429.438 -37.0101 0.40049 429.438
2307 1 -51.1717 2.60789 435.403 -51.1717 2.60789 435.403
2314 1 -46.3886 4.08316 436.4 -46.3886 4.08316 436.4
2040 1 -38.757 0.398826 431.303 -38.757 0.398826 431.303
2320 1 -43.1237 2.60795 435.966 -43.1237 2.60795 435.966
2292 1 -60.0922 0.392237 435.774 -60.0922 0.392237 435.774
2311 1 -48.7802 3.34556 435.901 -48.7802 3.34556 435.901
2302 1 -54.4363 4.08279 435.837 -54.4363 4.08279 435.837
2296 1 -57.7008 1.13014 436.272 -57.7008 1.13014 436.272
1463 1 -38.9446 2.62092 422.349 -38.9446 2.62092 422.349
2287 1 -62.7115 2.60276 438.572 -62.7115 2.60276 438.572
2291 1 -60.3201 3.34066 439.07 -60.3201 3.34066 439.07
2317 1 -44.8702 2.60598 437.831 -44.8702 2.60598 437.831
2038 1 -39.6304 2.61168 432.236 -39.6304 2.61168 432.236
2305 1 -52.0448 0.393105 436.336 -52.0448 0.393105 436.336
2332 1 -35.9485 0.392837 437.461 -35.9485 0.392837 437.461
1709 1 -63.5459 4.08912 427.251 -63.5459 4.08912 427.251
1468 1 -35.6789 1.14512 421.915 -35.6789 1.14512 421.915
1454 1 -43.9576 4.09517 424.647 -43.9576 4.09517 424.647
1429 1 -58.3076 4.09602 421.654 -58.3076 4.09602 421.654
1133 1 -63.0898 2.61958 420.657 -63.0898 2.61958 420.657
1175 1 -37.1972 2.62237 420.484 -37.1972 2.62237 420.484
2616 1 -38.7967 1.12472 443.555 -38.7967 1.12472 443.555
2901 1 -40.5431 1.12274 445.42 -40.5431 1.12274 445.42
2907 1 -37.2783 4.07505 444.985 -37.2783 4.07505 444.985
3194 1 -38.3796 0.381228 449.214 -38.3796 0.381228 449.214
2587 1 -55.5374 0.388905 440.067 -55.5374 0.388905 440.067
2597 1 -49.8814 4.07907 440.131 -49.8814 4.07907 440.131
2584 1 -57.2836 0.386825 441.932 -57.2836 0.386825 441.932
2581 1 -59.0299 0.384747 443.798 -59.0299 0.384747 443.798
2868 1 -60.7761 0.382647 445.663 -60.7761 0.382647 445.663
2865 1 -62.5222 0.380497 447.529 -62.5222 0.380497 447.529
2601 1 -47.4898 0.389217 440.629 -47.4898 0.389217 440.629
2598 1 -49.2362 0.387172 442.494 -49.2362 0.387172 442.494
2885 1 -50.9826 0.385134 444.36 -50.9826 0.385134 444.36
2882 1 -52.7289 0.383121 446.225 -52.7289 0.383121 446.225
2879 1 -54.4753 0.381135 448.091 -54.4753 0.381135 448.091
2612 1 -41.1883 0.387163 443.056 -41.1883 0.387163 443.056
2898 1 -42.9347 0.38515 444.922 -42.9347 0.38515 444.922
2895 1 -44.6811 0.383101 446.787 -44.6811 0.383101 446.787
3180 1 -46.4275 0.38105 448.652 -46.4275 0.38105 448.652
2576 1 -62.0663 3.33853 440.936 -62.0663 3.33853 440.936
2574 1 -63.8124 3.33638 442.801 -63.8124 3.33638 442.801
2589 1 -54.0191 3.33934 441.498 -54.0191 3.33934 441.498
2586 1 -55.7654 3.33729 443.363 -55.7654 3.33729 443.363
2874 1 -57.5117 3.33525 445.229 -57.5117 3.33525 445.229
2871 1 -59.2579 3.33321 447.094 -59.2579 3.33321 447.094
3155 1 -61.0041 3.33112 448.96 -61.0041 3.33112 448.96
2607 1 -44.2251 3.34152 440.194 -44.2251 3.34152 440.194
2604 1 -45.9715 3.3395 442.06 -45.9715 3.3395 442.06
2600 1 -47.7179 3.33746 443.925 -47.7179 3.33746 443.925
2887 1 -49.4643 3.33542 445.791 -49.4643 3.33542 445.791
2884 1 -51.2106 3.3334 447.656 -51.2106 3.3334 447.656
3168 1 -52.9571 3.33141 449.522 -52.9571 3.33141 449.522
2900 1 -41.4163 3.33545 446.352 -41.4163 3.33545 446.352
2897 1 -43.1627 3.3334 448.218 -43.1627 3.3334 448.218
2582 1 -58.8019 1.86376 440.501 -58.8019 1.86376 440.501
2579 1 -60.5481 1.86165 442.367 -60.5481 1.86165 442.367
2866 1 -62.2942 1.85951 444.232 -62.2942 1.85951 444.232
2578 1 -61.1932 1.12587 440.003 -61.1932 1.12587 440.003
2595 1 -50.7545 1.86431 441.063 -50.7545 1.86431 441.063
2592 1 -52.5009 1.86226 442.929 -52.5009 1.86226 442.929
2880 1 -54.2472 1.86024 444.794 -54.2472 1.86024 444.794
2877 1 -55.9935 1.85824 446.66 -55.9935 1.85824 446.66
2873 1 -57.7398 1.85624 448.525 -57.7398 1.85624 448.525
2609 1 -42.7067 1.86434 441.625 -42.7067 1.86434 441.625
2606 1 -44.4531 1.86232 443.491 -44.4531 1.86232 443.491
2892 1 -46.1995 1.86028 445.356 -46.1995 1.86028 445.356
2890 1 -47.9459 1.85823 447.221 -47.9459 1.85823 447.221
3174 1 -49.6923 1.85621 449.087 -49.6923 1.85621 449.087
2618 1 -37.9234 3.33942 442.622 -37.9234 3.33942 442.622
2585 1 -56.4105 2.60159 440.999 -56.4105 2.60159 440.999
2583 1 -58.1568 2.59951 442.865 -58.1568 2.59951 442.865
2870 1 -59.903 2.59743 444.73 -59.903 2.59743 444.73
2867 1 -61.6491 2.59531 446.596 -61.6491 2.59531 446.596
2863 1 -63.3952 2.59312 448.462 -63.3952 2.59312 448.462
2599 1 -48.363 2.60192 441.561 -48.363 2.60192 441.561
2596 1 -50.1094 2.59988 443.427 -50.1094 2.59988 443.427
2883 1 -51.8558 2.59785 445.292 -51.8558 2.59785 445.292
2881 1 -53.6021 2.59585 447.158 -53.6021 2.59585 447.158
3164 1 -55.3485 2.59387 449.024 -55.3485 2.59387 449.024
2610 1 -42.0615 2.59989 443.989 -42.0615 2.59989 443.989
2896 1 -43.8079 2.59785 445.854 -43.8079 2.59785 445.854
2893 1 -45.5543 2.5958 447.72 -45.5543 2.5958 447.72
3178 1 -47.3007 2.59376 449.585 -47.3007 2.59376 449.585
2575 1 -62.9394 1.12373 441.868 -62.9394 1.12373 441.868
2591 1 -53.146 1.12664 440.565 -53.146 1.12664 440.565
2588 1 -54.8923 1.12459 442.43 -54.8923 1.12459 442.43
2876 1 -56.6386 1.12255 444.296 -56.6386 1.12255 444.296
2872 1 -58.3848 1.12051 446.162 -58.3848 1.12051 446.162
2869 1 -60.131 1.11844 448.027 -60.131 1.11844 448.027
2605 1 -45.0983 1.12679 441.127 -45.0983 1.12679 441.127
2602 1 -46.8447 1.12475 442.992 -46.8447 1.12475 442.992
2889 1 -48.5911 1.12271 444.858 -48.5911 1.12271 444.858
2886 1 -50.3374 1.12068 446.723 -50.3374 1.12068 446.723
3170 1 -52.0839 1.11868 448.589 -52.0839 1.11868 448.589
2899 1 -42.2895 1.1207 447.285 -42.2895 1.1207 447.285
3184 1 -44.0359 1.11865 449.15 -44.0359 1.11865 449.15
2580 1 -59.675 4.07643 441.434 -59.675 4.07643 441.434
2577 1 -61.4212 4.07431 443.299 -61.4212 4.07431 443.299
2864 1 -63.1673 4.07215 445.165 -63.1673 4.07215 445.165
2862 1 -64.0403 1.85732 446.098 -64.0403 1.85732 446.098
2594 1 -51.6277 4.07701 441.996 -51.6277 4.07701 441.996
2590 1 -53.374 4.07498 443.861 -53.374 4.07498 443.861
2878 1 -55.1204 4.07296 445.727 -55.1204 4.07296 445.727
2875 1 -56.8667 4.07097 447.593 -56.8667 4.07097 447.593
3159 1 -58.613 4.06896 449.458 -58.613 4.06896 449.458
2611 1 -41.8334 4.07905 440.693 -41.8334 4.07905 440.693
2608 1 -43.5799 4.07706 442.558 -43.5799 4.07706 442.558
2894 1 -45.3263 4.07503 444.423 -45.3263 4.07503 444.423
2891 1 -47.0727 4.07298 446.289 -47.0727 4.07298 446.289
2888 1 -48.8191 4.07094 448.154 -48.8191 4.07094 448.154
2904 1 -39.0248 4.07307 446.851 -39.0248 4.07307 446.851
2621 1 -36.1768 3.3413 440.757 -36.1768 3.3413 440.757
2617 1 -38.5685 2.6038 440.258 -38.5685 2.6038 440.258
2614 1 -40.315 2.60188 442.124 -40.315 2.60188 442.124
2908 1 -36.6332 0.383249 447.349 -36.6332 0.383249 447.349
2619 1 -37.0501 1.12664 441.689 -37.0501 1.12664 441.689
2906 1 -37.5064 2.59597 448.282 -37.5064 2.59597 448.282
2905 1 -38.1515 1.86034 445.918 -38.1515 1.86034 445.918
2620 1 -36.405 1.86229 444.053 -36.405 1.86229 444.053
3190 1 -40.7711 4.07103 448.716 -40.7711 4.07103 448.716
2902 1 -39.898 1.85833 447.783 -39.898 1.85833 447.783
2903 1 -39.6699 3.33746 444.487 -39.6699 3.33746 444.487
2615 1 -39.4418 0.389122 441.191 -39.4418 0.389122 441.191
2909 1 -35.7599 2.59796 446.416 -35.7599 2.59796 446.416
14 1 -55.1802 4.14647 400.14 -55.1802 4.14647 400.14
7 1 -59.9063 2.63831 399.228 -59.9063 2.63831 399.228
25 1 -47.1341 4.13588 400.614 -47.1341 4.13588 400.614
38 1 -39.083 4.09611 401.13 -39.083 4.09611 401.13
23 1 -48.8835 4.11833 402.474 -48.8835 4.11833 402.474
287 1 -52.3761 4.10622 406.173 -52.3761 4.10622 406.173
878 1 -43.2703 4.10396 414.761 -43.2703 4.10396 414.761
579 1 -49.5737 4.10682 412.332 -49.5737 4.10682 412.332
585 1 -46.0767 4.11027 408.606 -46.0767 4.11027 408.606
290 1 -50.6322 4.10877 404.308 -50.6322 4.10877 404.308
11 1 -56.9229 4.09835 401.906 -56.9229 4.09835 401.906
595 1 -39.775 4.10712 411.032 -39.775 4.10712 411.032
1134 1 -62.8618 4.09863 417.36 -62.8618 4.09863 417.36
283 1 -54.1269 4.10796 408.036 -54.1269 4.10796 408.036
582 1 -47.8248 4.10817 410.469 -47.8248 4.10817 410.469
276 1 -58.6819 4.11644 403.755 -58.6819 4.11644 403.755
569 1 -55.8782 4.1096 409.897 -55.8782 4.1096 409.897
847 1 -61.1159 4.10127 415.493 -61.1159 4.10127 415.493
556 1 -63.9235 4.10639 409.331 -63.9235 4.10639 409.331
272 1 -60.4405 4.12091 405.594 -60.4405 4.12091 405.594
3 1 -61.7305 2.65419 400.906 -61.7305 2.65419 400.906
35 1 -40.831 4.11789 402.999 -40.831 4.11789 402.999
598 1 -38.0279 4.10918 409.167 -38.0279 4.10918 409.167
850 1 -59.3704 4.10436 413.627 -59.3704 4.10436 413.627