ITEM: TIMESTEP
0
ITEM: NUMBER OF ATOMS
4630
ITEM: BOX BOUNDS xy xz yz pp pp pp
-6.4120718590682372e+01 1.0713975043888237e+02 0.0000000000000000e+00
0.0000000000000000e+00 4.4274527100805940e+00 0.0000000000000000e+00
3.8000000000000000e+02 5.0000000000000000e+02 0.0000000000000000e+00
ITEM: ATOMS id type x y z xu yu zu
27 1 -46.196 1.95932 399.754 -46.196 1.95932 399.754
36 1 -40.5439 1.21883 399.813 -40.5439 1.21883 399.813
31 1 -43.7956 2.6578 400.193 -43.7956 2.6578 400.193
22 1 -49.4218 3.41078 400.158 -49.4218 3.41078 400.158
20 1 -50.3153 1.18794 400.997 -50.3153 1.18794 400.997
40 1 -38.1453 1.91842 400.254 -38.1453 1.91842 400.254
34 1 -41.4141 3.41705 400.641 -41.4141 3.41705 400.641
17 1 -52.7008 0.438601 400.554 -52.7008 0.438601 400.554
9 1 -58.3223 1.13244 400.462 -58.3223 1.13244 400.462
43 1 -35.7644 2.67847 400.703 -35.7644 2.67847 400.703
12 1 -55.9658 1.93749 400.94 -55.9658 1.93749 400.94
5 1 -60.7151 0.44757 399.999 -60.7151 0.44757 399.999
29 1 -44.6642 0.429205 401.042 -44.6642 0.429205 401.042
853 1 -57.7637 2.64012 415.043 -57.7637 2.64012 415.043
873 1 -46.4609 1.16505 415.177 -46.4609 1.16505 415.177
865 1 -50.5967 0.425657 416.543 -50.5967 0.425657 416.543
1174 1 -37.7754 1.89739 418.106 -37.7754 1.89739 418.106
883 1 -40.8086 0.426161 415.242 -40.8086 0.426161 415.242
863 1 -52.1138 1.90368 415.11 -52.1138 1.90368 415.11
315 1 -35.9922 1.18115 403.978 -35.9922 1.18115 403.978
307 1 -40.9953 2.65393 406.283 -40.9953 2.65393 406.283
1150 1 -52.3413 0.422394 418.408 -52.3413 0.422394 418.408
855 1 -56.2471 1.16242 416.476 -56.2471 1.16242 416.476
310 1 -39.2503 2.65886 404.422 -39.2503 2.65886 404.422
871 1 -47.3339 3.37759 416.11 -47.3339 3.37759 416.11
16 1 -53.5699 2.63697 401.404 -53.5699 2.63697 401.404
309 1 -39.478 1.17592 407.713 -39.478 1.17592 407.713
1156 1 -49.0795 3.37497 417.975 -49.0795 3.37497 417.975
867 1 -49.7239 2.64076 415.61 -49.7239 2.64076 415.61
1159 1 -46.6898 4.11187 418.475 -46.6898 4.11187 418.475
1168 1 -41.0376 3.37296 418.54 -41.0376 3.37296 418.54
1170 1 -40.1648 1.16049 417.607 -40.1648 1.16049 417.607
594 1 -40.3506 3.38808 408.647 -40.3506 3.38808 408.647
37 1 -39.894 1.9253 402.083 -39.894 1.9253 402.083
851 1 -58.6355 0.424343 415.977 -58.6355 0.424343 415.977
857 1 -55.3752 3.37812 415.543 -55.3752 3.37812 415.543
592 1 -41.2231 1.17294 409.58 -41.2231 1.17294 409.58
849 1 -59.5073 2.63608 416.911 -59.5073 2.63608 416.911
877 1 -44.071 1.9018 415.677 -44.071 1.9018 415.677
1143 1 -57.1189 3.37418 417.41 -57.1189 3.37418 417.41
1140 1 -58.8626 3.37033 419.277 -58.8626 3.37033 419.277
845 1 -61.8955 1.89798 416.412 -61.8955 1.89798 416.412
875 1 -44.944 4.11434 416.609 -44.944 4.11434 416.609
886 1 -39.0631 0.428854 413.376 -39.0631 0.428854 413.376
891 1 -35.8015 3.38108 412.941 -35.8015 3.38108 412.941
39 1 -38.3823 0.439366 403.474 -38.3823 0.439366 403.474
1177 1 -36.2588 0.419289 419.537 -36.2588 0.419289 419.537
1167 1 -41.9104 1.15799 419.473 -41.9104 1.15799 419.473
8 1 -59.2007 3.38627 401.415 -59.2007 3.38627 401.415
869 1 -48.2068 1.16262 417.042 -48.2068 1.16262 417.042
1136 1 -61.251 2.63231 418.778 -61.251 2.63231 418.778
1162 1 -45.1728 2.63366 419.907 -45.1728 2.63366 419.907
15 1 -54.4453 0.443108 402.386 -54.4453 0.443108 402.386
280 1 -56.1952 0.436588 404.225 -56.1952 0.436588 404.225
277 1 -57.9534 0.445396 406.08 -57.9534 0.445396 406.08
273 1 -59.7002 0.441519 407.941 -59.7002 0.441519 407.941
560 1 -61.4415 0.434519 409.81 -61.4415 0.434519 409.81
557 1 -63.1843 0.429488 411.679 -63.1843 0.429488 411.679
26 1 -46.411 0.448296 402.915 -46.411 0.448296 402.915
294 1 -48.1606 0.446602 404.789 -48.1606 0.446602 404.789
291 1 -49.907 0.438545 406.652 -49.907 0.438545 406.652
576 1 -51.6533 0.434793 408.516 -51.6533 0.434793 408.516
573 1 -53.4016 0.434012 410.379 -53.4016 0.434012 410.379
570 1 -55.1479 0.432116 412.243 -55.1479 0.432116 412.243
854 1 -56.892 0.428447 414.11 -56.892 0.428447 414.11
305 1 -41.8665 0.439087 407.216 -41.8665 0.439087 407.216
589 1 -43.6123 0.436144 409.082 -43.6123 0.436144 409.082
586 1 -45.3583 0.433186 410.948 -45.3583 0.433186 410.948
872 1 -47.1045 0.430571 412.813 -47.1045 0.430571 412.813
599 1 -37.3178 0.431784 411.51 -37.3178 0.431784 411.51
1132 1 -63.6394 1.8944 418.28 -63.6394 1.8944 418.28
4 1 -60.998 3.41514 403.198 -60.998 3.41514 403.198
268 1 -62.7323 3.39461 405.065 -62.7323 3.39461 405.065
1152 1 -51.4691 2.63782 417.475 -51.4691 2.63782 417.475
19 1 -51.1986 3.38142 401.917 -51.1986 3.38142 401.917
286 1 -52.9343 3.38254 403.774 -52.9343 3.38254 403.774
282 1 -54.6807 3.38679 405.648 -54.6807 3.38679 405.648
279 1 -56.4346 3.39062 407.511 -56.4346 3.39062 407.511
565 1 -58.1822 3.38937 409.375 -58.1822 3.38937 409.375
563 1 -59.9251 3.38427 411.243 -59.9251 3.38427 411.243
846 1 -61.6681 3.37951 413.111 -61.6681 3.37951 413.111
32 1 -43.1511 3.39427 402.505 -43.1511 3.39427 402.505
300 1 -44.8992 3.39692 404.361 -44.8992 3.39692 404.361
297 1 -46.6463 3.39325 406.221 -46.6463 3.39325 406.221
293 1 -48.3913 3.38937 408.085 -48.3913 3.38937 408.085
578 1 -50.1375 3.38597 409.95 -50.1375 3.38597 409.95
575 1 -51.8849 3.38404 411.813 -51.8849 3.38404 411.813
860 1 -53.6309 3.38164 413.677 -53.6309 3.38164 413.677
591 1 -42.096 3.38515 410.513 -42.096 3.38515 410.513
588 1 -43.8417 3.38244 412.379 -43.8417 3.38244 412.379
874 1 -45.5878 3.37994 414.245 -45.5878 3.37994 414.245
10 1 -57.7037 1.9016 402.802 -57.7037 1.9016 402.802
274 1 -59.4753 1.92768 404.64 -59.4753 1.92768 404.64
271 1 -61.2175 1.91971 406.504 -61.2175 1.91971 406.504
558 1 -62.9572 1.91133 408.376 -62.9572 1.91133 408.376
24 1 -47.9458 1.91637 401.51 -47.9458 1.91637 401.51
21 1 -49.6829 1.92106 403.352 -49.6829 1.92106 403.352
288 1 -51.4206 1.91448 405.222 -51.4206 1.91448 405.222
285 1 -53.1678 1.91129 407.086 -53.1678 1.91129 407.086
571 1 -54.9183 1.91191 408.947 -54.9183 1.91191 408.947
568 1 -56.6651 1.91048 410.81 -56.6651 1.91048 410.81
852 1 -58.4087 1.90634 412.676 -58.4087 1.90634 412.676
848 1 -60.1519 1.90195 414.544 -60.1519 1.90195 414.544
306 1 -41.6411 1.91909 403.917 -41.6411 1.91909 403.917
302 1 -43.3837 1.9165 405.782 -43.3837 1.9165 405.782
299 1 -45.1289 1.91452 407.65 -45.1289 1.91452 407.65
583 1 -46.8747 1.9114 409.516 -46.8747 1.9114 409.516
581 1 -48.6211 1.90844 411.381 -48.6211 1.90844 411.381
866 1 -50.368 1.90623 413.245 -50.368 1.90623 413.245
880 1 -42.3252 1.9043 413.811 -42.3252 1.9043 413.811
312 1 -37.7342 1.17865 405.844 -37.7342 1.17865 405.844
2 1 -62.5279 0.465514 401.763 -62.5279 0.465514 401.763
13 1 -55.3134 2.65102 403.279 -55.3134 2.65102 403.279
278 1 -57.0722 2.65429 405.149 -57.0722 2.65429 405.149
275 1 -58.8278 2.6582 407.006 -58.8278 2.6582 407.006
562 1 -60.5704 2.65153 408.874 -60.5704 2.65153 408.874
559 1 -62.3126 2.64552 410.744 -62.3126 2.64552 410.744
1166 1 -42.7831 3.37047 420.406 -42.7831 3.37047 420.406
889 1 -36.674 1.16589 413.875 -36.674 1.16589 413.875
28 1 -45.5418 2.66345 402.024 -45.5418 2.66345 402.024
296 1 -47.2918 2.65942 403.856 -47.2918 2.65942 403.856
292 1 -49.035 2.65624 405.719 -49.035 2.65624 405.719
289 1 -50.7793 2.65049 407.586 -50.7793 2.65049 407.586
574 1 -52.5274 2.64833 409.449 -52.5274 2.64833 409.449
572 1 -54.2752 2.64715 411.311 -54.2752 2.64715 411.311
856 1 -56.0202 2.64417 413.176 -56.0202 2.64417 413.176
303 1 -42.74 2.65092 408.149 -42.74 2.65092 408.149
587 1 -44.4854 2.64828 410.015 -44.4854 2.64828 410.015
584 1 -46.2313 2.64554 411.881 -46.2313 2.64554 411.881
870 1 -47.9778 2.64313 413.746 -47.9778 2.64313 413.746
6 1 -60.1083 1.19454 402.283 -60.1083 1.19454 402.283
270 1 -61.8657 1.19041 404.125 -61.8657 1.19041 404.125
267 1 -63.6004 1.17689 406.005 -63.6004 1.17689 406.005
890 1 -36.0301 1.9001 416.239 -36.0301 1.9001 416.239
18 1 -52.0564 1.17156 402.865 -52.0564 1.17156 402.865
284 1 -53.8048 1.17453 404.726 -53.8048 1.17453 404.726
281 1 -55.5585 1.17537 406.584 -55.5585 1.17537 406.584
567 1 -57.3097 1.17743 408.443 -57.3097 1.17743 408.443
564 1 -59.0539 1.17323 410.309 -59.0539 1.17323 410.309
561 1 -60.7966 1.16806 412.177 -60.7966 1.16806 412.177
844 1 -62.5399 1.16372 414.046 -62.5399 1.16372 414.046
33 1 -42.2993 1.17876 401.565 -42.2993 1.17876 401.565
30 1 -44.0308 1.17728 403.413 -44.0308 1.17728 403.413
298 1 -45.7729 1.18109 405.284 -45.7729 1.18109 405.284
295 1 -47.5183 1.17794 407.153 -47.5183 1.17794 407.153
580 1 -49.2642 1.17352 409.017 -49.2642 1.17352 409.017
577 1 -51.0113 1.17106 410.881 -51.0113 1.17106 410.881
862 1 -52.7582 1.16922 412.745 -52.7582 1.16922 412.745
590 1 -42.9688 1.17011 411.447 -42.9688 1.17011 411.447
876 1 -44.7147 1.16744 413.312 -44.7147 1.16744 413.312
1163 1 -44.3 0.421209 418.974 -44.3 0.421209 418.974
1153 1 -50.8243 3.37184 419.841 -50.8243 3.37184 419.841
311 1 -38.6052 3.39189 406.781 -38.6052 3.39189 406.781
42 1 -36.6502 0.440016 401.627 -36.6502 0.440016 401.627
1135 1 -62.123 0.416797 419.712 -62.123 0.416797 419.712
1171 1 -39.5208 1.89482 419.972 -39.5208 1.89482 419.972
1139 1 -59.7345 1.15475 420.211 -59.7345 1.15475 420.211
601 1 -36.4454 2.64699 410.576 -36.4454 2.64699 410.576
313 1 -36.8586 3.39604 404.913 -36.8586 3.39604 404.913
858 1 -54.5032 1.16624 414.61 -54.5032 1.16624 414.61
868 1 -48.8509 0.428277 414.678 -48.8509 0.428277 414.678
1147 1 -54.7303 4.11215 417.909 -54.7303 4.11215 417.909
843 1 -63.4118 3.37553 414.98 -63.4118 3.37553 414.98
593 1 -40.5795 1.907 411.945 -40.5795 1.907 411.945
308 1 -40.1223 0.442275 405.346 -40.1223 0.442275 405.346
861 1 -52.9862 4.11581 416.043 -52.9862 4.11581 416.043
1158 1 -47.5624 1.89679 419.407 -47.5624 1.89679 419.407
884 1 -39.9358 2.64121 414.309 -39.9358 2.64121 414.309
881 1 -41.6814 2.63862 416.175 -41.6814 2.63862 416.175
885 1 -39.292 3.3755 416.674 -39.292 3.3755 416.674
859 1 -53.8583 1.90029 416.976 -53.8583 1.90029 416.976
596 1 -38.8343 1.90985 410.078 -38.8343 1.90985 410.078
879 1 -42.5543 0.423653 417.108 -42.5543 0.423653 417.108
1172 1 -38.6481 4.10982 419.039 -38.6481 4.10982 419.039
1154 1 -49.952 1.15974 418.908 -49.952 1.15974 418.908
887 1 -38.4193 1.1631 415.741 -38.4193 1.1631 415.741
597 1 -38.1904 2.64399 412.443 -38.1904 2.64399 412.443
1161 1 -45.817 1.89941 417.542 -45.817 1.89941 417.542
1138 1 -60.3791 0.420435 417.845 -60.3791 0.420435 417.845
1149 1 -53.2134 2.63432 419.342 -53.2134 2.63432 419.342
41 1 -37.5024 2.65594 402.566 -37.5024 2.65594 402.566
888 1 -37.5466 3.37819 414.808 -37.5466 3.37819 414.808
1165 1 -43.4272 2.63617 418.041 -43.4272 2.63617 418.041
1141 1 -57.9908 1.1585 418.343 -57.9908 1.1585 418.343
1145 1 -55.6022 1.89651 418.842 -55.6022 1.89651 418.842
600 1 -37.0898 1.91287 408.211 -37.0898 1.91287 408.211
1148 1 -54.0854 0.418757 420.275 -54.0854 0.418757 420.275
882 1 -41.4523 4.11933 412.878 -41.4523 4.11933 412.878
1157 1 -48.4349 4.10905 420.34 -48.4349 4.10905 420.34
1144 1 -56.4741 4.10833 419.776 -56.4741 4.10833 419.776
602 1 -35.5729 0.434982 409.643 -35.5729 0.434982 409.643
1131 1 -63.867 0.413383 421.579 -63.867 0.413383 421.579
1755 1 -36.0716 2.61954 428.498 -36.0716 2.61954 428.498
1460 1 -40.622 2.62652 424.203 -40.622 2.62652 424.203
2308 1 -50.4445 3.34223 437.767 -50.4445 3.34223 437.767
2316 1 -45.4393 1.87064 435.465 -45.4393 1.87064 435.465
2312 1 -48.0557 4.07959 438.266 -48.0557 4.07959 438.266
1464 1 -38.2326 3.36341 424.701 -38.2326 3.36341 424.701
1461 1 -39.7494 0.414109 423.27 -39.7494 0.414109 423.27
2039 1 -38.9168 3.34807 434.596 -38.9168 3.34807 434.596
2613 1 -40.889 1.86395 439.761 -40.889 1.86395 439.761
1467 1 -35.8433 4.10032 425.2 -35.8433 4.10032 425.2
2603 1 -46.539 2.60158 439.698 -46.539 2.60158 439.698
1443 1 -50.1795 4.10584 422.206 -50.1795 4.10584 422.206
1748 1 -39.9777 3.36072 426.568 -39.9777 3.36072 426.568
2023 1 -47.8282 1.13335 434.967 -47.8282 1.13335 434.967
2310 1 -48.9278 1.86426 439.199 -48.9278 1.86426 439.199
1151 1 -51.6965 1.1564 420.774 -51.6965 1.1564 420.774
2303 1 -53.7054 0.389447 438.202 -53.7054 0.389447 438.202
2299 1 -56.0941 4.07939 437.704 -56.0941 4.07939 437.704
2033 1 -42.1781 0.395695 435.031 -42.1781 0.395695 435.031
1433 1 -55.8294 0.415058 422.142 -55.8294 0.415058 422.142
1430 1 -57.5733 0.411434 424.009 -57.5733 0.411434 424.009
1426 1 -59.3173 0.407917 425.876 -59.3173 0.407917 425.876
1713 1 -61.0613 0.404502 427.743 -61.0613 0.404502 427.743
1710 1 -62.8054 0.401173 429.61 -62.8054 0.401173 429.61
2330 1 -36.7555 2.60419 438.393 -36.7555 2.60419 438.393
1160 1 -46.0454 0.418586 420.839 -46.0454 0.418586 420.839
1447 1 -47.7903 0.415633 422.705 -47.7903 0.415633 422.705
1444 1 -49.5348 0.4124 424.572 -49.5348 0.4124 424.572
1730 1 -51.279 0.409019 426.439 -51.279 0.409019 426.439
1727 1 -53.0231 0.405592 428.305 -53.0231 0.405592 428.305
1724 1 -54.7672 0.402175 430.172 -54.7672 0.402175 430.172
2008 1 -56.5113 0.398789 432.039 -56.5113 0.398789 432.039
2006 1 -58.2554 0.395439 433.906 -58.2554 0.395439 433.906
1458 1 -41.4946 0.411444 425.136 -41.4946 0.411444 425.136
1743 1 -43.2395 0.40861 427.002 -43.2395 0.40861 427.002
1740 1 -44.9841 0.4056 428.868 -44.9841 0.4056 428.868
2026 1 -46.7285 0.402459 430.735 -46.7285 0.402459 430.735
2022 1 -48.4728 0.399239 432.601 -48.4728 0.399239 432.601
2019 1 -50.217 0.395981 434.468 -50.217 0.395981 434.468
2309 1 -49.5724 1.13012 436.834 -49.5724 1.13012 436.834
1137 1 -60.6065 3.36667 421.144 -60.6065 3.36667 421.144
1421 1 -62.3505 3.36319 423.012 -62.3505 3.36319 423.012
1439 1 -52.5686 3.36835 421.707 -52.5686 3.36835 421.707
1435 1 -54.3126 3.36476 423.574 -54.3126 3.36476 423.574
1432 1 -56.0566 3.36119 425.441 -56.0566 3.36119 425.441
1719 1 -57.8006 3.35769 427.308 -57.8006 3.35769 427.308
1716 1 -59.5447 3.35426 429.175 -59.5447 3.35426 429.175
2001 1 -61.2888 3.35091 431.042 -61.2888 3.35091 431.042
1998 1 -63.0329 3.34761 432.909 -63.0329 3.34761 432.909
2323 1 -40.6613 3.34507 436.463 -40.6613 3.34507 436.463
1453 1 -44.5284 3.36783 422.272 -44.5284 3.36783 422.272
1450 1 -46.2733 3.36493 424.138 -46.2733 3.36493 424.138
1446 1 -48.0178 3.3618 426.004 -48.0178 3.3618 426.004
1732 1 -49.7622 3.35851 427.871 -49.7622 3.35851 427.871
1729 1 -51.5064 3.35516 429.737 -51.5064 3.35516 429.737
2014 1 -53.2505 3.35179 431.604 -53.2505 3.35179 431.604
2011 1 -54.9946 3.34844 433.471 -54.9946 3.34844 433.471
1745 1 -41.7226 3.35791 428.434 -41.7226 3.35791 428.434
1742 1 -43.4672 3.35494 430.3 -43.4672 3.35494 430.3
2028 1 -45.2117 3.35185 432.167 -45.2117 3.35185 432.167
2025 1 -46.956 3.34868 434.033 -46.956 3.34868 434.033
1427 1 -59.0899 1.88907 422.577 -59.0899 1.88907 422.577
1424 1 -60.8339 1.88556 424.444 -60.8339 1.88556 424.444
1711 1 -62.578 1.88218 426.311 -62.578 1.88218 426.311
2322 1 -41.5335 1.12982 437.396 -41.5335 1.12982 437.396
1750 1 -38.4609 1.88257 427.999 -38.4609 1.88257 427.999
1155 1 -49.3073 1.89376 421.273 -49.3073 1.89376 421.273
1441 1 -51.0517 1.89041 423.14 -51.0517 1.89041 423.14
1438 1 -52.7958 1.88693 425.006 -52.7958 1.88693 425.006
1725 1 -54.5399 1.88342 426.873 -54.5399 1.88342 426.873
1722 1 -56.2839 1.87996 428.74 -56.2839 1.87996 428.74
1718 1 -58.028 1.87655 430.607 -58.028 1.87655 430.607
2003 1 -59.7721 1.87318 432.474 -59.7721 1.87318 432.474
2000 1 -61.5162 1.86987 434.341 -61.5162 1.86987 434.341
1459 1 -41.2663 1.89228 421.838 -41.2663 1.89228 421.838
1455 1 -43.0115 1.88963 423.704 -43.0115 1.88963 423.704
1452 1 -44.7564 1.88677 425.57 -44.7564 1.88677 425.57
1737 1 -46.5009 1.88371 427.436 -46.5009 1.88371 427.436
1735 1 -48.2453 1.8805 429.303 -48.2453 1.8805 429.303
2020 1 -49.9896 1.87722 431.169 -49.9896 1.87722 431.169
2017 1 -51.7338 1.87391 433.036 -51.7338 1.87391 433.036
2034 1 -41.9504 1.87682 431.732 -41.9504 1.87682 431.732
2031 1 -43.6949 1.87377 433.599 -43.6949 1.87377 433.599
2029 1 -44.5671 4.08594 434.532 -44.5671 4.08594 434.532
1146 1 -54.9574 2.63063 421.208 -54.9574 2.63063 421.208
1431 1 -56.7013 2.62696 423.075 -56.7013 2.62696 423.075
1428 1 -58.4453 2.62339 424.942 -58.4453 2.62339 424.942
1715 1 -60.1893 2.61992 426.809 -60.1893 2.61992 426.809
1712 1 -61.9334 2.61655 428.676 -61.9334 2.61655 428.676
1708 1 -63.6775 2.61326 430.544 -63.6775 2.61326 430.544
1747 1 -40.2057 1.87976 429.866 -40.2057 1.87976 429.866
1449 1 -46.9179 2.63088 421.772 -46.9179 2.63088 421.772
1445 1 -48.6626 2.62777 423.639 -48.6626 2.62777 423.639
1442 1 -50.4069 2.62445 425.505 -50.4069 2.62445 425.505
1728 1 -52.1511 2.62103 427.372 -52.1511 2.62103 427.372
1726 1 -53.8952 2.61761 429.239 -53.8952 2.61761 429.239
2010 1 -55.6393 2.6142 431.106 -55.6393 2.6142 431.106
2007 1 -57.3834 2.61084 432.973 -57.3834 2.61084 432.973
1456 1 -42.367 2.62378 426.069 -42.367 2.62378 426.069
1741 1 -44.1118 2.62085 427.935 -44.1118 2.62085 427.935
1738 1 -45.8563 2.61777 429.801 -45.8563 2.61777 429.801
2024 1 -47.6007 2.61458 431.668 -47.6007 2.61458 431.668
2021 1 -49.3449 2.61134 433.535 -49.3449 2.61134 433.535
2035 1 -41.3058 2.61094 434.097 -41.3058 2.61094 434.097
1754 1 -36.7159 1.88527 426.133 -36.7159 1.88527 426.133
1423 1 -61.4785 1.15118 422.078 -61.4785 1.15118 422.078
1420 1 -63.2225 1.14779 423.945 -63.2225 1.14779 423.945
2044 1 -35.6553 1.8729 434.162 -35.6553 1.8729 434.162
1437 1 -53.4406 1.15283 422.641 -53.4406 1.15283 422.641
1434 1 -55.1846 1.14924 424.508 -55.1846 1.14924 424.508
1721 1 -56.9286 1.1457 426.375 -56.9286 1.1457 426.375
1717 1 -58.6727 1.14224 428.242 -58.6727 1.14224 428.242
1714 1 -60.4167 1.13885 430.109 -60.4167 1.13885 430.109
1999 1 -62.1608 1.13553 431.976 -62.1608 1.13553 431.976
1997 1 -63.9049 1.13225 433.843 -63.9049 1.13225 433.843
1164 1 -43.6558 1.15545 421.339 -43.6558 1.15545 421.339
1451 1 -45.4009 1.15269 423.205 -45.4009 1.15269 423.205
1448 1 -47.1456 1.14966 425.071 -47.1456 1.14966 425.071
1734 1 -48.89 1.14644 426.937 -48.89 1.14644 426.937
1731 1 -50.6343 1.14311 428.804 -50.6343 1.14311 428.804
2016 1 -52.3784 1.13975 430.671 -52.3784 1.13975 430.671
2012 1 -54.1226 1.13639 432.538 -54.1226 1.13639 432.538
2009 1 -55.8667 1.13305 434.405 -55.8667 1.13305 434.405
1746 1 -40.8502 1.14561 427.501 -40.8502 1.14561 427.501
1744 1 -42.5949 1.14271 429.367 -42.5949 1.14271 429.367
2030 1 -44.3395 1.13968 431.233 -44.3395 1.13968 431.233
2027 1 -46.0839 1.13655 433.1 -46.0839 1.13655 433.1
2325 1 -39.7891 1.13286 435.529 -39.7891 1.13286 435.529
1749 1 -39.3333 4.09491 428.933 -39.3333 4.09491 428.933
1425 1 -59.9619 4.10103 423.51 -59.9619 4.10103 423.51
1736 1 -47.3732 4.09584 428.369 -47.3732 4.09584 428.369
1142 1 -57.346 1.89273 420.709 -57.346 1.89273 420.709
1720 1 -57.156 4.09197 429.674 -57.156 4.09197 429.674
2005 1 -58.9001 4.08859 431.541 -58.9001 4.08859 431.541
2002 1 -60.6441 4.08525 433.408 -60.6441 4.08525 433.408
1169 1 -40.3936 4.10728 420.905 -40.3936 4.10728 420.905
1723 1 -55.4119 4.09541 427.807 -55.4119 4.09541 427.807
1440 1 -51.9238 4.1024 424.073 -51.9238 4.1024 424.073
1733 1 -49.1175 4.09259 430.236 -49.1175 4.09259 430.236
2018 1 -50.8617 4.08929 432.103 -50.8617 4.08929 432.103
2015 1 -52.6059 4.08598 433.97 -52.6059 4.08598 433.97
2036 1 -41.0781 4.09203 430.799 -41.0781 4.09203 430.799
2032 1 -42.8226 4.08904 432.665 -42.8226 4.08904 432.665
2326 1 -39.1445 1.86701 437.895 -39.1445 1.86701 437.895
1752 1 -37.5884 4.09766 427.066 -37.5884 4.09766 427.066
1457 1 -42.1389 4.1047 422.771 -42.1389 4.1047 422.771
2043 1 -36.2997 1.13867 431.797 -36.2997 1.13867 431.797
2286 1 -63.2603 1.86658 436.208 -63.2603 1.86658 436.208
2319 1 -43.2779 1.12671 439.263 -43.2779 1.12671 439.263
1436 1 -53.6679 4.0989 425.94 -53.6679 4.0989 425.94
1422 1 -61.7059 4.09758 425.377 -61.7059 4.09758 425.377
1173 1 -38.0041 0.416685 421.404 -38.0041 0.416685 421.404
2293 1 -59.3549 1.12644 438.139 -59.3549 1.12644 438.139
2289 1 -61.7436 0.388821 437.64 -61.7436 0.388821 437.64
2295 1 -57.8382 4.07611 439.571 -57.8382 4.07611 439.571
1465 1 -37.36 1.15099 423.768 -37.36 1.15099 423.768
2315 1 -45.6668 0.389441 438.764 -45.6668 0.389441 438.764
2331 1 -36.5277 4.08519 435.095 -36.5277 4.08519 435.095
2297 1 -56.9662 1.86402 438.637 -56.9662 1.86402 438.637
2324 1 -40.0168 4.07921 438.828 -40.0168 4.07921 438.828
2306 1 -51.3166 1.12689 438.701 -51.3166 1.12689 438.701
2285 1 -63.4876 0.385528 439.507 -63.4876 0.385528 439.507
1462 1 -39.1052 1.14835 425.634 -39.1052 1.14835 425.634
1751 1 -37.8165 2.61678 430.365 -37.8165 2.61678 430.365
2329 1 -37.4 1.87 436.028 -37.4 1.87 436.028
2042 1 -37.1721 3.35098 432.73 -37.1721 3.35098 432.73
2041 1 -38.0444 1.13581 433.663 -38.0444 1.13581 433.663
2593 1 -52.1887 3.339 439.634 -52.1887 3.339 439.634
2328 1 -37.6278 0.388968 439.327 -37.6278 0.388968 439.327
2301 1 -54.5774 2.60155 439.136 -54.5774 2.60155 439.136
1466 1 -36.4874 3.36602 422.835 -36.4874 3.36602 422.835
2298 1 -56.7387 3.34512 435.338 -56.7387 3.34512 435.338
2321 1 -42.4057 3.34199 438.329 -42.4057 3.34199 438.329
2313 1 -47.1836 1.86746 437.332 -47.1836 1.86746 437.332
2294 1 -58.4828 3.34181 437.205 -58.4828 3.34181 437.205
2304 1 -52.8333 2.6048 437.269 -52.8333 2.6048 437.269
2300 1 -55.2221 1.8673 436.77 -55.2221 1.8673 436.77
2290 1 -60.8715 2.60419 436.707 -60.8715 2.60419 436.707
2318 1 -43.9225 0.392595 436.897 -43.9225 0.392595 436.897
2327 1 -38.2723 4.08224 436.961 -38.2723 4.08224 436.961
2004 1 -59.1275 2.6075 434.84 -59.1275 2.6075 434.84
2013 1 -53.4779 1.8706 434.903 -53.4779 1.8706 434.903
2288 1 -62.3882 4.08195 435.275 -62.3882 4.08195 435.275
2037 1 -40.4336 0.398715 433.164 -40.4336 0.398715 433.164
1739 1 -45.6287 4.09899 426.503 -45.6287 4.09899 426.503
1753 1 -36.9441 0.404443 429.431 -36.9441 0.404443 429.431
2307 1 -51.0891 2.60807 435.402 -51.0891 2.60807 435.402
2314 1 -46.3114 4.08279 436.399 -46.3114 4.08279 436.399
2040 1 -38.6889 0.401635 431.298 -38.6889 0.401635 431.298
2320 1 -43.0503 2.60788 435.964 -43.0503 2.60788 435.964
2292 1 -59.9995 0.39212 435.773 -59.9995 0.39212 435.773
2311 1 -48.7003 3.34547 435.9 -48.7003 3.34547 435.9
2302 1 -54.35 4.08268 435.837 -54.35 4.08268 435.837
2296 1 -57.6108 1.12973 436.272 -57.6108 1.12973 436.272
1463 1 -38.8768 2.62913 422.337 -38.8768 2.62913 422.337
2287 1 -62.6156 2.6009 438.574 -62.6156 2.6009 438.574
2291 1 -60.2269 3.33852 439.072 -60.2269 3.33852 439.072
2317 1 -44.7947 2.60475 437.831 -44.7947 2.60475 437.831
2038 1 -39.5613 2.61391 432.231 -39.5613 2.61391 432.231
2305 1 -51.9612 0.392712 436.335 -51.9612 0.392712 436.335
2332 1 -35.8832 0.391949 437.46 -35.8832 0.391949 437.46
1709 1 -63.45 4.09425 427.244 -63.45 4.09425 427.244
1468 1 -35.6148 1.1536 421.902 -35.6148 1.1536 421.902
1454 1 -43.884 4.10196 424.637 -43.884 4.10196 424.637
1429 1 -58.218 4.10461 421.643 -58.218 4.10461 421.643
1133 1 -62.995 2.62879 420.646 -62.995 2.62879 420.646
1175 1 -37.1314 2.6317 420.471 -37.1314 2.6317 420.471
2616 1 -38.7277 1.12008 443.558 -38.7277 1.12008 443.558
2901 1 -40.472 1.11693 445.425 -40.472 1.11693 445.425
2907 1 -37.211 4.06955 444.99 -37.211 4.06955 444.99
3194 1 -38.3106 0.373114 449.222 -38.3106 0.373114 449.222
2587 1 -55.4495 0.386195 440.069 -55.4495 0.386195 440.069
2597 1 -49.7999 4.07638 440.133 -49.7999 4.07638 440.133
2584 1 -57.1936 0.382956 441.936 -57.1936 0.382956 441.936
2581 1 -58.9377 0.37972 443.803 -58.9377 0.37972 443.803
2868 1 -60.6817 0.376469 445.67 -60.6817 0.376469 445.67
2865 1 -62.4257 0.373174 447.537 -62.4257 0.373174 447.537
2601 1 -47.4111 0.386252 440.631 -47.4111 0.386252 440.631
2598 1 -49.1553 0.38305 442.498 -49.1553 0.38305 442.498
2885 1 -50.8995 0.379856 444.365 -50.8995 0.379856 444.365
2882 1 -52.6437 0.376688 446.232 -52.6437 0.376688 446.232
2879 1 -54.3879 0.37355 448.099 -54.3879 0.37355 448.099
2612 1 -41.1166 0.382792 443.06 -41.1166 0.382792 443.06
2898 1 -42.8609 0.37962 444.927 -42.8609 0.37962 444.927
2895 1 -44.6051 0.376415 446.794 -44.6051 0.376415 446.794
3180 1 -46.3492 0.37321 448.661 -46.3492 0.37321 448.661
2576 1 -61.9709 3.33523 440.939 -61.9709 3.33523 440.939
2574 1 -63.7149 3.33192 442.806 -63.7149 3.33192 442.806
2589 1 -53.9328 3.33577 441.501 -53.9328 3.33577 441.501
2586 1 -55.677 3.33257 443.368 -55.677 3.33257 443.368
2874 1 -57.4211 3.32937 445.235 -57.4211 3.32937 445.235
2871 1 -59.1652 3.32617 447.102 -59.1652 3.32617 447.102
3155 1 -60.9092 3.32295 448.969 -60.9092 3.32295 448.969
2607 1 -44.1501 3.33886 440.196 -44.1501 3.33886 440.196
2604 1 -45.8944 3.33568 442.063 -45.8944 3.33568 442.063
2600 1 -47.6386 3.33248 443.93 -47.6386 3.33248 443.93
2887 1 -49.3828 3.32928 445.797 -49.3828 3.32928 445.797
2884 1 -51.127 3.32611 447.664 -51.127 3.32611 447.664
3168 1 -52.8712 3.32297 449.531 -52.8712 3.32297 449.531
2900 1 -41.3441 3.32906 446.359 -41.3441 3.32906 446.359
2897 1 -43.0883 3.32586 448.225 -43.0883 3.32586 448.225
2582 1 -58.7102 1.86075 440.504 -58.7102 1.86075 440.504
2579 1 -60.4543 1.85748 442.371 -60.4543 1.85748 442.371
2866 1 -62.1983 1.85419 444.238 -62.1983 1.85419 444.238
2578 1 -61.0989 1.12315 440.006 -61.0989 1.12315 440.006
2595 1 -50.672 1.86104 441.066 -50.672 1.86104 441.066
2592 1 -52.4162 1.85784 442.933 -52.4162 1.85784 442.933
2880 1 -54.1603 1.85466 444.8 -54.1603 1.85466 444.8
2877 1 -55.9045 1.8515 446.667 -55.9045 1.8515 446.667
2873 1 -57.6486 1.84836 448.534 -57.6486 1.84836 448.534
2609 1 -42.6333 1.86082 441.628 -42.6333 1.86082 441.628
2606 1 -44.3776 1.85765 443.495 -44.3776 1.85765 443.495
2892 1 -46.1218 1.85444 445.362 -46.1218 1.85444 445.362
2890 1 -47.866 1.85124 447.229 -47.866 1.85124 447.229
3174 1 -49.6102 1.84807 449.096 -49.6102 1.84807 449.096
2618 1 -37.8555 3.33535 442.625 -37.8555 3.33535 442.625
2585 1 -56.3216 2.5983 441.003 -56.3216 2.5983 441.003
2583 1 -58.0656 2.59506 442.87 -58.0656 2.59506 442.87
2870 1 -59.8097 2.59182 444.737 -59.8097 2.59182 444.737
2867 1 -61.5537 2.58855 446.604 -61.5537 2.58855 446.604
2863 1 -63.2976 2.58523 448.471 -63.2976 2.58523 448.471
2599 1 -48.2832 2.59838 441.565 -48.2832 2.59838 441.565
2596 1 -50.0274 2.59518 443.432 -50.0274 2.59518 443.432
2883 1 -51.7716 2.59199 445.299 -51.7716 2.59199 445.299
2881 1 -53.5158 2.58884 447.166 -53.5158 2.58884 447.166
3164 1 -55.26 2.58572 449.033 -55.26 2.58572 449.033
2610 1 -41.9887 2.59494 443.993 -41.9887 2.59494 443.993
2896 1 -43.733 2.59175 445.86 -43.733 2.59175 445.86
2893 1 -45.4771 2.58854 447.727 -45.4771 2.58854 447.727
3178 1 -47.2213 2.58535 449.594 -47.2213 2.58535 449.594
2575 1 -62.8429 1.11985 441.873 -62.8429 1.11985 441.873
2591 1 -53.0608 1.12366 440.568 -53.0608 1.12366 440.568
2588 1 -54.8049 1.12044 442.435 -54.8049 1.12044 442.435
2876 1 -56.549 1.11724 444.302 -56.549 1.11724 444.302
2872 1 -58.2931 1.11405 446.169 -58.2931 1.11405 446.169
2869 1 -60.0372 1.11084 448.036 -60.0372 1.11084 448.036
2605 1 -45.0222 1.12355 441.13 -45.0222 1.12355 441.13
2602 1 -46.7665 1.12035 442.996 -46.7665 1.12035 442.996
2889 1 -48.5107 1.11715 444.863 -48.5107 1.11715 444.863
2886 1 -50.2549 1.11397 446.73 -50.2549 1.11397 446.73
3170 1 -51.9991 1.11082 448.597 -51.9991 1.11082 448.597
2899 1 -42.2162 1.11374 447.292 -42.2162 1.11374 447.292
3184 1 -43.9603 1.11052 449.159 -43.9603 1.11052 449.159
2580 1 -59.5823 4.07284 441.438 -59.5823 4.07284 441.438
2577 1 -61.3263 4.06957 443.305 -61.3263 4.06957 443.305
2864 1 -63.0703 4.06626 445.172 -63.0703 4.06626 445.172
2862 1 -63.9423 1.85086 446.105 -63.9423 1.85086 446.105
2594 1 -51.5441 4.07317 442 -51.5441 4.07317 442
2590 1 -53.2883 4.06997 443.867 -53.2883 4.06997 443.867
2878 1 -55.0324 4.06681 445.734 -55.0324 4.06681 445.734
2875 1 -56.7766 4.06366 447.601 -56.7766 4.06366 447.601
3159 1 -58.5207 4.06051 449.468 -58.5207 4.06051 449.468
2611 1 -41.7612 4.07612 440.695 -41.7612 4.07612 440.695
2608 1 -43.5055 4.07296 442.561 -43.5055 4.07296 442.561
2894 1 -45.2497 4.06977 444.428 -45.2497 4.06977 444.428
2891 1 -46.9939 4.06657 446.295 -46.9939 4.06657 446.295
2888 1 -48.7381 4.06338 448.162 -48.7381 4.06338 448.162
2904 1 -38.9553 4.0664 446.857 -38.9553 4.0664 446.857
2621 1 -36.111 3.3384 440.759 -36.111 3.3384 440.759
2617 1 -38.5 2.60118 440.26 -38.5 2.60118 440.26
2614 1 -40.2444 2.59809 442.127 -40.2444 2.59809 442.127
2908 1 -36.5664 0.376299 447.356 -36.5664 0.376299 447.356
2619 1 -36.9833 1.12316 441.692 -36.9833 1.12316 441.692
2906 1 -37.4385 2.58844 448.289 -37.4385 2.58844 448.289
2905 1 -38.0831 1.85425 445.924 -38.0831 1.85425 445.924
2620 1 -36.3388 1.85737 444.057 -36.3388 1.85737 444.057
3190 1 -40.6994 4.0632 448.724 -40.6994 4.0632 448.724
2902 1 -39.8274 1.85108 447.791 -39.8274 1.85108 447.791
2903 1 -39.5999 3.33224 444.492 -39.5999 3.33224 444.492
2615 1 -39.3722 0.385912 441.193 -39.3722 0.385912 441.193
2909 1 -35.6943 2.59159 446.422 -35.6943 2.59159 446.422
14 1 -55.0975 4.16763 400.113 -55.0975 4.16763 400.113
7 1 -59.8164 2.66051 399.201 -59.8164 2.66051 399.201
25 1 -47.059 4.15737 400.586 -47.059 4.15737 400.586
38 1 -39.0157 4.11698 401.102 -39.0157 4.11698 401.102
23 1 -48.8062 4.13856 402.448 -48.8062 4.13856 402.448
287 1 -52.2945 4.12422 406.15 -52.2945 4.12422 406.15
878 1 -43.1981 4.11674 414.744 -43.1981 4.11674 414.744
579 1 -49.4945 4.12108 412.314 -49.4945 4.12108 412.314
585 1 -46.0018 4.12677 408.584 -46.0018 4.12677 408.584
290 1 -50.5527 4.12795 404.284 -50.5527 4.12795 404.284
11 1 -56.8367 4.11896 401.88 -56.8367 4.11896 401.88
595 1 -39.7069 4.12213 411.012 -39.7069 4.12213 411.012
1134 1 -62.7674 4.10988 417.346 -62.7674 4.10988 417.346
283 1 -54.0432 4.12479 408.014 -54.0432 4.12479 408.014
582 1 -47.7478 4.12356 410.449 -47.7478 4.12356 410.449
276 1 -58.5938 4.13585 403.73 -58.5938 4.13585 403.73
569 1 -55.7922 4.12528 409.877 -55.7922 4.12528 409.877
847 1 -61.0236 4.11364 415.478 -61.0236 4.11364 415.478
556 1 -63.8286 4.12256 409.312 -63.8286 4.12256 409.312
272 1 -60.3497 4.13914 405.572 -60.3497 4.13914 405.572
3 1 -61.6403 2.67581 400.88 -61.6403 2.67581 400.88
35 1 -40.762 4.13754 402.973 -40.762 4.13754 402.973
598 1 -37.9617 4.12528 409.145 -37.9617 4.12528 409.145
850 1 -59.2802 4.11782 413.61 -59.2802 4.11782 413.61