ITEM: TIMESTEP
0
ITEM: NUMBER OF ATOMS
4630
ITEM: BOX BOUNDS xy xz yz pp pp pp
-6.3713138862517731e+01 1.0673217071071774e+02 0.0000000000000000e+00
0.0000000000000000e+00 4.4274527100805940e+00 0.0000000000000000e+00
3.8000000000000000e+02 5.0000000000000000e+02 0.0000000000000000e+00
ITEM: ATOMS id type x y z xu yu zu
7 1 -59.4382 2.75222 399.087 -59.4382 2.75222 399.087
27 1 -45.8879 2.0481 399.635 -45.8879 2.0481 399.635
36 1 -40.2603 1.30705 399.693 -40.2603 1.30705 399.693
45 1 -34.6357 0.568059 399.755 -34.6357 0.568059 399.755
85 1 -8.89887 0.573025 399.58 -8.89887 0.573025 399.58
94 1 -3.2712 4.25985 399.64 -3.2712 4.25985 399.64
103 1 2.35261 3.52132 399.703 2.35261 3.52132 399.703
112 1 7.97562 2.78315 399.767 7.97562 2.78315 399.767
152 1 33.7042 2.78697 399.591 33.7042 2.78697 399.591
161 1 39.3311 2.04523 399.648 39.3311 2.04523 399.648
170 1 44.9546 1.30552 399.709 44.9546 1.30552 399.709
227 1 81.9324 4.25844 399.642 81.9324 4.25844 399.642
236 1 87.5595 3.51729 399.699 87.5595 3.51729 399.699
245 1 93.1826 2.77789 399.759 93.1826 2.77789 399.759
5 1 -60.3395 0.537996 399.885 -60.3395 0.537996 399.885
2 1 -62.1373 0.553843 401.66 -62.1373 0.553843 401.66
3 1 -61.2611 2.76511 400.769 -61.2611 2.76511 400.769
1 1 -62.9914 2.74125 402.599 107.454 2.74125 402.599
4 1 -60.6141 3.49654 403.095 -60.6141 3.49654 403.095
9 1 -57.952 1.21653 400.348 -57.952 1.21653 400.348
8 1 -58.8286 3.47125 401.304 -58.8286 3.47125 401.304
10 1 -57.3372 1.98426 402.696 -57.3372 1.98426 402.696
6 1 -59.7306 1.27851 402.175 -59.7306 1.27851 402.175
11 1 -56.4742 4.20413 401.774 -56.4742 4.20413 401.774
12 1 -55.6079 2.02506 400.829 -55.6079 2.02506 400.829
16 1 -53.2217 2.72282 401.291 -53.2217 2.72282 401.291
15 1 -54.0936 0.525623 402.275 -54.0936 0.525623 402.275
14 1 -54.7497 4.25504 399.997 -54.7497 4.25504 399.997
17 1 -52.3575 0.524479 400.438 -52.3575 0.524479 400.438
13 1 -54.9568 2.73149 403.174 -54.9568 2.73149 403.174
22 1 -49.0987 3.4969 400.04 -49.0987 3.4969 400.04
20 1 -49.9831 1.27459 400.883 -49.9831 1.27459 400.883
19 1 -50.862 3.46656 401.809 -50.862 3.46656 401.809
18 1 -51.716 1.25373 402.756 -51.716 1.25373 402.756
21 1 -49.3529 2.00231 403.246 -49.3529 2.00231 403.246
23 1 -48.4812 4.2222 402.337 -48.4812 4.2222 402.337
26 1 -46.0961 0.530061 402.805 -46.0961 0.530061 402.805
24 1 -47.6249 2.00371 401.4 -47.6249 2.00371 401.4
28 1 -45.2314 2.74728 401.909 -45.2314 2.74728 401.909
25 1 -46.7435 4.24617 400.47 -46.7435 4.24617 400.47
29 1 -44.3571 0.515787 400.926 -44.3571 0.515787 400.926
31 1 -43.4923 2.74451 400.073 -43.4923 2.74451 400.073
34 1 -41.1218 3.50532 400.525 -41.1218 3.50532 400.525
32 1 -42.8514 3.47769 402.393 -42.8514 3.47769 402.393
33 1 -42.003 1.26507 401.454 -42.003 1.26507 401.454
30 1 -43.7269 1.25848 403.305 -43.7269 1.25848 403.305
35 1 -40.4719 4.21869 402.863 -40.4719 4.21869 402.863
40 1 -37.8667 2.00471 400.134 -37.8667 2.00471 400.134
37 1 -39.6084 2.00835 401.968 -39.6084 2.00835 401.968
41 1 -37.2277 2.73875 402.454 -37.2277 2.73875 402.454
38 1 -38.733 4.20315 400.986 -38.733 4.20315 400.986
39 1 -38.1034 0.519942 403.366 -38.1034 0.519942 403.366
43 1 -35.497 2.7663 400.587 -35.497 2.7663 400.587
42 1 -36.3787 0.52586 401.515 -36.3787 0.52586 401.515
44 1 -34.8479 3.47992 402.925 -34.8479 3.47992 402.925
46 1 -33.9842 1.26951 402.03 -33.9842 1.26951 402.03
47 1 -33.1086 3.46438 401.048 -33.1086 3.46438 401.048
49 1 -32.2423 1.26594 400.196 -32.2423 1.26594 400.196
52 1 -29.8728 2.02765 400.649 -29.8728 2.02765 400.649
50 1 -31.6036 2.00006 402.516 -31.6036 2.00006 402.516
51 1 -30.7545 4.21465 401.578 -30.7545 4.21465 401.578
53 1 -29.2238 2.74126 402.987 -29.2238 2.74126 402.987
54 1 -29.0115 4.25686 399.817 -29.0115 4.25686 399.817
48 1 -32.4793 4.20874 403.428 -32.4793 4.20874 403.428
58 1 -26.6181 0.527267 400.259 -26.6181 0.527267 400.259
59 1 -25.9795 1.26139 402.579 -25.9795 1.26139 402.579
56 1 -27.4844 2.72573 401.111 -27.4844 2.72573 401.111
55 1 -28.36 0.530849 402.093 -28.36 0.530849 402.093
60 1 -25.1304 3.47598 401.641 -25.1304 3.47598 401.641
57 1 -26.8553 3.4701 403.491 -26.8553 3.4701 403.491
61 1 -24.2488 1.28896 400.712 -24.2488 1.28896 400.712
63 1 -23.3876 3.51817 399.88 -23.3876 3.51817 399.88
62 1 -23.5998 2.00251 403.05 -23.5998 2.00251 403.05
64 1 -22.736 4.21952 402.155 -22.736 4.21952 402.155
65 1 -21.8605 1.98687 401.173 -21.8605 1.98687 401.173
66 1 -21.2313 2.73121 403.553 -21.2313 2.73121 403.553
70 1 -18.6248 0.549747 400.775 -18.6248 0.549747 400.775
68 1 -20.3554 0.522453 402.641 -20.3554 0.522453 402.641
69 1 -19.5067 2.73682 401.703 -19.5067 2.73682 401.703
67 1 -20.9942 4.21586 400.322 -20.9942 4.21586 400.322
72 1 -17.7651 2.77865 399.942 -17.7651 2.77865 399.942
71 1 -17.9752 1.26346 403.112 -17.9752 1.26346 403.112
75 1 -15.3724 3.47698 400.382 -15.3724 3.47698 400.382
74 1 -16.2363 1.24814 401.234 -16.2363 1.24814 401.234
73 1 -17.1124 3.48023 402.217 -17.1124 3.48023 402.217
76 1 -14.7307 4.20729 402.699 -14.7307 4.20729 402.699
77 1 -13.8753 1.99207 401.752 -13.8753 1.99207 401.752
348 1 -15.6042 1.99008 403.611 -15.6042 1.99008 403.611
80 1 -12.1105 2.02201 399.985 -12.1105 2.02201 399.985
81 1 -11.4937 2.74767 402.281 -11.4937 2.74767 402.281
78 1 -12.9963 4.22714 400.827 -12.9963 4.22714 400.827
79 1 -12.3661 0.528133 403.19 -12.3661 0.528133 403.19
83 1 -9.75495 2.77111 400.416 -9.75495 2.77111 400.416
82 1 -10.6371 0.528739 401.344 -10.6371 0.528739 401.344
87 1 -7.36833 3.46837 400.872 -7.36833 3.46837 400.872
84 1 -9.10806 3.48298 402.751 -9.10806 3.48298 402.751
86 1 -8.24307 1.27254 401.855 -8.24307 1.27254 401.855
89 1 -6.50327 1.26963 400.02 -6.50327 1.26963 400.02
90 1 -5.86297 2.00305 402.339 -5.86297 2.00305 402.339
88 1 -6.73865 4.2114 403.252 -6.73865 4.2114 403.252
92 1 -4.13284 2.03066 400.472 -4.13284 2.03066 400.472
93 1 -3.48353 2.74415 402.81 -3.48353 2.74415 402.81
91 1 -5.01429 4.21785 401.401 -5.01429 4.21785 401.401
96 1 -1.74424 2.72862 400.933 -1.74424 2.72862 400.933
95 1 -2.61981 0.533798 401.916 -2.61981 0.533798 401.916
98 1 -0.87778 0.530191 400.082 -0.87778 0.530191 400.082
100 1 0.609658 3.479 401.464 0.609658 3.479 401.464
99 1 -0.239436 1.26435 402.402 -0.239436 1.26435 402.402
97 1 -1.1152 3.47297 403.314 -1.1152 3.47297 403.314
101 1 1.49144 1.29209 400.536 1.49144 1.29209 400.536
102 1 2.14002 2.00561 402.874 2.14002 2.00561 402.874
105 1 3.87952 1.99028 400.997 3.87952 1.99028 400.997
104 1 3.00382 4.22273 401.979 3.00382 4.22273 401.979
108 1 5.3839 0.526012 402.466 5.3839 0.526012 402.466
107 1 4.7458 4.21931 400.146 4.7458 4.21931 400.146
106 1 4.50815 2.7346 403.378 4.50815 2.7346 403.378
110 1 7.11467 0.553914 400.599 7.11467 0.553914 400.599
111 1 7.76316 1.26728 402.938 7.76316 1.26728 402.938
109 1 6.233 2.74077 401.528 6.233 2.74077 401.528
113 1 8.62689 3.48444 402.043 8.62689 3.48444 402.043
114 1 9.5025 1.25205 401.061 9.5025 1.25205 401.061
116 1 10.3687 3.48107 400.209 10.3687 3.48107 400.209
118 1 11.8558 2.00248 401.592 11.8558 2.00248 401.592
117 1 11.0067 4.21514 402.53 11.0067 4.21514 402.53
121 1 13.598 2.04484 399.831 13.598 2.04484 399.831
120 1 13.3859 0.528848 403.002 13.3859 0.528848 403.002
119 1 12.7373 4.24308 400.663 12.7373 4.24308 400.663
115 1 10.1311 1.99626 403.442 10.1311 1.99626 403.442
122 1 14.2495 2.74599 402.107 14.2495 2.74599 402.107
123 1 15.125 0.51362 401.124 15.125 0.51362 401.124
125 1 15.991 2.74261 400.273 15.991 2.74261 400.273
126 1 16.6292 3.47657 402.593 16.6292 3.47657 402.593
127 1 17.4781 1.26389 401.655 17.4781 1.26389 401.655
124 1 15.7537 1.25771 403.505 15.7537 1.25771 403.505
130 1 19.2199 1.30618 399.894 19.2199 1.30618 399.894
128 1 18.3595 3.50444 400.726 18.3595 3.50444 400.726
129 1 19.0083 4.2175 403.065 19.0083 4.2175 403.065
131 1 19.8718 2.00715 402.17 19.8718 2.00715 402.17
132 1 20.747 4.20213 401.187 20.747 4.20213 401.187
133 1 21.3762 0.518638 403.568 21.3762 0.518638 403.568
134 1 21.613 2.00364 400.335 21.613 2.00364 400.335
136 1 23.1001 0.524468 401.717 23.1001 0.524468 401.717
135 1 22.2517 2.73741 402.656 22.2517 2.73741 402.656
139 1 24.8405 0.566322 399.955 24.8405 0.566322 399.955
137 1 23.9816 2.76491 400.788 23.9816 2.76491 400.788
138 1 24.6314 3.47809 403.126 24.6314 3.47809 403.126
141 1 26.3695 3.46296 401.248 26.3695 3.46296 401.248
140 1 25.4937 1.26746 402.23 25.4937 1.26746 402.23
142 1 27.2329 1.2643 400.395 27.2329 1.2643 400.395
143 1 27.8749 1.99421 402.712 27.8749 1.99421 402.712
144 1 28.7299 4.2065 401.765 28.7299 4.2065 401.765
145 1 29.6085 2.01408 400.84 29.6085 2.01408 400.84
147 1 30.4934 4.2363 399.996 30.4934 4.2363 399.996
146 1 30.2392 2.74212 403.202 30.2392 2.74212 403.202
150 1 32.8488 0.557665 400.427 32.8488 0.557665 400.427
148 1 31.1111 0.534209 402.293 31.1111 0.534209 402.293
149 1 31.9672 2.74282 401.356 31.9672 2.74282 401.356
153 1 34.3609 3.48606 401.865 34.3609 3.48606 401.865
151 1 33.4964 1.26906 402.762 33.4964 1.26906 402.762
156 1 36.0998 3.4831 400.029 36.0998 3.4831 400.029
154 1 35.2352 1.25445 400.882 35.2352 1.25445 400.882
157 1 36.7409 4.2161 402.349 36.7409 4.2161 402.349
155 1 35.8657 1.99702 403.262 35.8657 1.99702 403.262
158 1 37.5891 2.0034 401.41 37.5891 2.0034 401.41
159 1 38.4701 4.24357 400.481 38.4701 4.24357 400.481
162 1 39.9835 2.74625 401.923 39.9835 2.74625 401.923
160 1 39.1203 0.529207 402.819 39.1203 0.529207 402.819
163 1 40.8586 0.51359 400.941 40.8586 0.51359 400.941
165 1 41.7246 2.74254 400.089 41.7246 2.74254 400.089
164 1 41.4887 1.25752 403.321 41.4887 1.25752 403.321
168 1 44.094 3.50382 400.541 44.094 3.50382 400.541
167 1 43.2126 1.2634 401.47 43.2126 1.2634 401.47
166 1 42.364 3.4763 402.409 42.364 3.4763 402.409
169 1 44.7436 4.21705 402.879 44.7436 4.21705 402.879
171 1 45.607 2.00664 401.984 45.607 2.00664 401.984
174 1 47.348 2.00308 400.15 47.348 2.00308 400.15
175 1 47.9873 2.73691 402.469 47.9873 2.73691 402.469
172 1 46.4821 4.20156 401.001 46.4821 4.20156 401.001
173 1 47.112 0.518102 403.382 47.112 0.518102 403.382
177 1 49.7172 2.76456 400.602 49.7172 2.76456 400.602
176 1 48.836 0.524097 401.531 48.836 0.524097 401.531
179 1 50.5778 0.566284 399.769 50.5778 0.566284 399.769
181 1 52.1054 3.46238 401.062 52.1054 3.46238 401.062
178 1 50.3669 3.47778 402.94 50.3669 3.47778 402.94
180 1 51.2302 1.26741 402.045 51.2302 1.26741 402.045
183 1 52.9712 1.26391 400.21 52.9712 1.26391 400.21
184 1 53.6105 1.99777 402.53 53.6105 1.99777 402.53
186 1 55.3404 2.0255 400.663 55.3404 2.0255 400.663
187 1 55.99 2.73871 403.001 55.99 2.73871 403.001
188 1 56.2009 4.25468 399.83 56.2009 4.25468 399.83
185 1 54.4591 4.21245 401.592 54.4591 4.21245 401.592
182 1 52.7352 4.20639 403.442 52.7352 4.20639 403.442
189 1 56.8533 0.528362 402.105 56.8533 0.528362 402.105
192 1 58.5943 0.524901 400.271 58.5943 0.524901 400.271
194 1 60.0822 3.47349 401.652 60.0822 3.47349 401.652
193 1 59.2336 1.25879 402.591 59.2336 1.25879 402.591
190 1 57.7285 2.72336 401.123 57.7285 2.72336 401.123
191 1 58.3583 3.46739 403.503 58.3583 3.46739 403.503
195 1 60.9633 1.28656 400.723 60.9633 1.28656 400.723
197 1 61.8237 3.51574 399.89 61.8237 3.51574 399.89
199 1 63.3514 1.98443 401.183 63.3514 1.98443 401.183
196 1 61.6131 1.99977 403.061 61.6131 1.99977 403.061
198 1 62.4763 4.21687 402.166 62.4763 4.21687 402.166
200 1 63.9814 2.72848 403.563 63.9814 2.72848 403.563
202 1 64.8565 0.51986 402.651 64.8565 0.51986 402.651
201 1 64.2171 4.21341 400.331 64.2171 4.21341 400.331
206 1 67.4464 2.77681 399.95 67.4464 2.77681 399.95
204 1 66.5861 0.547623 400.783 66.5861 0.547623 400.783
203 1 65.705 2.73457 401.712 65.705 2.73457 401.712
205 1 67.2361 1.26079 403.121 67.2361 1.26079 403.121
207 1 68.0993 3.47787 402.226 68.0993 3.47787 402.226
209 1 69.8398 3.47433 400.391 69.8398 3.47433 400.391
208 1 68.9741 1.24535 401.243 68.9741 1.24535 401.243
211 1 71.3277 1.99519 401.772 71.3277 1.99519 401.772
210 1 70.4796 4.20817 402.711 70.4796 4.20817 402.711
212 1 72.2089 4.23563 400.843 72.2089 4.23563 400.843
214 1 73.0678 2.03706 400.009 73.0678 2.03706 400.009
217 1 75.4605 2.73523 400.448 75.4605 2.73523 400.448
216 1 74.5973 0.5064 401.301 74.5973 0.5064 401.301
215 1 73.7218 2.73839 402.284 73.7218 2.73839 402.284
213 1 72.8597 0.521556 403.18 72.8597 0.521556 403.18
218 1 76.1035 3.46533 402.765 76.1035 3.46533 402.765
220 1 77.8365 3.48525 400.892 77.8365 3.48525 400.892
219 1 76.9582 1.25017 401.817 76.9582 1.25017 401.817
222 1 78.7215 1.28008 400.049 78.7215 1.28008 400.049
223 1 79.3397 2.0056 402.345 79.3397 2.0056 402.345
221 1 78.468 4.21349 403.254 78.468 4.21349 403.254
224 1 80.1957 4.21419 401.408 80.1957 4.21419 401.408
225 1 81.0771 2.02909 400.478 81.0771 2.02909 400.478
229 1 83.4637 2.72614 400.933 83.4637 2.72614 400.933
228 1 82.5897 0.530293 401.917 82.5897 0.530293 401.917
226 1 81.7254 2.74073 402.813 81.7254 2.74073 402.813
231 1 84.3282 0.527365 400.08 84.3282 0.527365 400.08
234 1 86.6986 1.28815 400.531 86.6986 1.28815 400.531
233 1 85.8178 3.47539 401.46 85.8178 3.47539 401.46
235 1 87.3493 2.00145 402.869 87.3493 2.00145 402.869
232 1 84.9698 1.26062 402.4 84.9698 1.26062 402.4
230 1 84.0948 3.46899 403.313 84.0948 3.46899 403.313
241 1 90.5927 0.521286 402.459 90.5927 0.521286 402.459
238 1 89.0872 1.9858 400.991 89.0872 1.9858 400.991
240 1 89.953 4.21475 400.139 89.953 4.21475 400.139
237 1 88.2123 4.21848 401.974 88.2123 4.21848 401.974
239 1 89.7177 2.73005 403.371 89.7177 2.73005 403.371
242 1 91.4411 2.73582 401.52 91.4411 2.73582 401.52
243 1 92.3221 0.548745 400.591 92.3221 0.548745 400.591
247 1 94.71 1.24621 401.052 94.71 1.24621 401.052
246 1 93.8352 3.47897 402.034 93.8352 3.47897 402.034
244 1 92.9721 1.26212 402.929 92.9721 1.26212 402.929
254 1 98.8026 2.03616 399.82 98.8026 2.03616 399.82
249 1 95.5758 3.47504 400.2 95.5758 3.47504 400.2
253 1 98.5945 0.522547 402.991 98.5945 0.522547 402.991
251 1 97.0628 1.99568 401.582 97.0628 1.99568 401.582
252 1 97.9442 4.23537 400.653 97.9442 4.23537 400.653
250 1 96.215 4.20912 402.52 96.215 4.20912 402.52
248 1 95.3401 1.99083 403.432 95.3401 1.99083 403.432
258 1 101.194 2.73016 400.261 101.194 2.73016 400.261
255 1 99.4562 2.73818 402.096 99.4562 2.73818 402.096
259 1 101.832 3.47407 402.587 101.832 3.47407 402.587
260 1 102.677 1.26275 401.659 102.677 1.26275 401.659
256 1 100.332 0.504057 401.113 100.332 0.504057 401.113
257 1 100.961 1.25567 403.498 100.961 1.25567 403.498
263 1 104.387 1.29415 399.906 104.387 1.29415 399.906
261 1 103.543 3.50336 400.725 103.543 3.50336 400.725
264 1 105.1 2.0037 402.13 105.1 2.0037 402.13
265 1 105.947 4.20023 401.175 105.947 4.20023 401.175
262 1 104.224 4.21615 403.044 104.224 4.21615 403.044
266 1 106.597 0.515176 403.543 106.597 0.515176 403.543
268 1 -62.3381 3.47213 404.971 -62.3381 3.47213 404.971
271 1 -60.83 1.99307 406.413 -60.83 1.99307 406.413
270 1 -61.4759 1.26968 404.028 -61.4759 1.26968 404.028
267 1 -63.2021 1.25212 405.914 -63.2021 1.25212 405.914
272 1 -59.9669 4.21454 405.477 -59.9669 4.21454 405.477
269 1 -61.6954 4.19982 407.353 -61.6954 4.19982 407.353
277 1 -57.5826 0.519532 405.985 -57.5826 0.519532 405.985
274 1 -59.098 2.00551 404.541 -59.098 2.00551 404.541
278 1 -56.7066 2.73089 405.05 -56.7066 2.73089 405.05
275 1 -58.4518 2.72996 406.915 -58.4518 2.72996 406.915
276 1 -58.2225 4.2161 403.627 -58.2225 4.2161 403.627
279 1 -56.0702 3.46126 407.42 -56.0702 3.46126 407.42
280 1 -55.8341 0.515425 404.123 -55.8341 0.515425 404.123
286 1 -52.5891 3.46254 403.67 -52.5891 3.46254 403.67
282 1 -54.326 3.46191 405.55 -54.326 3.46191 405.55
284 1 -53.4548 1.25171 404.624 -53.4548 1.25171 404.624
281 1 -55.199 1.24837 406.489 -55.199 1.24837 406.489
285 1 -52.8195 1.98322 406.992 -52.8195 1.98322 406.992
291 1 -49.574 0.511821 406.556 -49.574 0.511821 406.556
288 1 -51.0816 1.99121 405.121 -51.0816 1.99121 405.121
292 1 -48.7065 2.73163 405.62 -48.7065 2.73163 405.62
287 1 -51.9508 4.19867 406.053 -51.9508 4.19867 406.053
290 1 -50.218 4.20729 404.181 -50.218 4.20729 404.181
294 1 -47.8367 0.524056 404.686 -47.8367 0.524056 404.686
297 1 -46.3286 3.4673 406.122 -46.3286 3.4673 406.122
296 1 -46.9721 2.73937 403.75 -46.9721 2.73937 403.75
298 1 -45.4598 1.25729 405.182 -45.4598 1.25729 405.182
295 1 -47.1962 1.24969 407.057 -47.1962 1.24969 407.057
300 1 -44.5907 3.47534 404.256 -44.5907 3.47534 404.256
306 1 -41.3471 1.99863 403.81 -41.3471 1.99863 403.81
302 1 -43.0814 1.99162 405.681 -43.0814 1.99162 405.681
304 1 -42.2096 4.21105 404.747 -42.2096 4.21105 404.747
301 1 -43.9485 4.20292 406.621 -43.9485 4.20292 406.621
305 1 -41.5706 0.510559 407.119 -41.5706 0.510559 407.119
307 1 -40.7036 2.72767 406.183 -40.7036 2.72767 406.183
310 1 -38.9672 2.73668 404.316 -38.9672 2.73668 404.316
312 1 -37.4575 1.2532 405.742 -37.4575 1.2532 405.742
311 1 -38.3243 3.46414 406.682 -38.3243 3.46414 406.682
308 1 -39.8349 0.518068 405.243 -39.8349 0.518068 405.243
313 1 -36.586 3.47264 404.808 -36.586 3.47264 404.808
315 1 -35.7233 1.26006 403.872 -35.7233 1.26006 403.872
316 1 -35.0799 1.98935 406.245 -35.0799 1.98935 406.245
317 1 -34.2112 4.20708 405.305 -34.2112 4.20708 405.305
314 1 -35.9468 4.19964 407.18 -35.9468 4.19964 407.18
319 1 -33.3433 1.99811 404.378 -33.3433 1.99811 404.378
320 1 -32.7005 2.72576 406.744 -32.7005 2.72576 406.744
324 1 -30.0993 0.521449 403.934 -30.0993 0.521449 403.934
321 1 -31.8336 0.514735 405.805 -31.8336 0.514735 405.805
322 1 -30.9621 2.73409 404.871 -30.9621 2.73409 404.871
323 1 -30.3229 3.46121 407.243 -30.3229 3.46121 407.243
325 1 -29.456 1.25085 406.307 -29.456 1.25085 406.307
328 1 -27.7192 1.25949 404.44 -27.7192 1.25949 404.44
326 1 -28.5872 3.46851 405.368 -28.5872 3.46851 405.368
329 1 -27.0765 1.98722 406.807 -27.0765 1.98722 406.807
330 1 -26.2096 4.20359 405.867 -26.2096 4.20359 405.867
331 1 -25.338 1.99544 404.933 -25.338 1.99544 404.933
337 1 -22.0951 0.520712 404.503 -22.0951 0.520712 404.503
334 1 -23.8319 0.512181 406.37 -23.8319 0.512181 406.37
335 1 -22.9632 2.72978 405.43 -22.9632 2.72978 405.43
333 1 -24.4752 4.21021 403.997 -24.4752 4.21021 403.997
338 1 -21.4524 1.24842 406.87 -21.4524 1.24842 406.87
332 1 -24.6989 2.7226 407.306 -24.6989 2.7226 407.306
340 1 -19.7137 1.25649 404.996 -19.7137 1.25649 404.996
342 1 -18.8511 3.47113 404.059 -18.8511 3.47113 404.059
339 1 -20.5855 3.46469 405.93 -20.5855 3.46469 405.93
344 1 -17.3382 1.98992 405.492 -17.3382 1.98992 405.492
343 1 -18.2078 4.20011 406.432 -18.2078 4.20011 406.432
341 1 -19.0747 1.98337 407.368 -19.0747 1.98337 407.368
347 1 -15.8309 0.509739 406.935 -15.8309 0.509739 406.935
349 1 -14.9638 2.72617 405.994 -14.9638 2.72617 405.994
346 1 -16.4707 4.2077 404.564 -16.4707 4.2077 404.564
350 1 -14.0956 0.518264 405.063 -14.0956 0.518264 405.063
351 1 -13.4541 1.24804 407.436 -13.4541 1.24804 407.436
353 1 -12.5868 3.466 406.499 -12.5868 3.466 406.499
352 1 -13.2315 2.7337 404.124 -13.2315 2.7337 404.124
354 1 -11.7194 1.25802 405.563 -11.7194 1.25802 405.563
356 1 -10.8493 3.47756 404.63 -10.8493 3.47756 404.63
358 1 -9.98455 1.26506 403.695 -9.98455 1.26506 403.695
357 1 -10.2086 4.20343 407.001 -10.2086 4.20343 407.001
363 1 -6.96078 2.72881 406.567 -6.96078 2.72881 406.567
359 1 -9.34105 1.99336 406.066 -9.34105 1.99336 406.066
362 1 -7.60278 2.00097 404.201 -7.60278 2.00097 404.201
360 1 -8.47208 4.21059 405.128 -8.47208 4.21059 405.128
364 1 -6.09347 0.517363 405.627 -6.09347 0.517363 405.627
368 1 -4.35883 0.52414 403.757 -4.35883 0.52414 403.757
366 1 -5.22151 2.73665 404.694 -5.22151 2.73665 404.694
369 1 -3.71576 1.25337 406.13 -3.71576 1.25337 406.13
367 1 -4.58284 3.4638 407.066 -4.58284 3.4638 407.066
370 1 -2.84694 3.47114 405.191 -2.84694 3.47114 405.191
372 1 -1.97907 1.26226 404.263 -1.97907 1.26226 404.263
376 1 0.401807 1.99829 404.757 0.401807 1.99829 404.757
373 1 -1.33657 1.98983 406.63 -1.33657 1.98983 406.63
374 1 -0.46969 4.20632 405.691 -0.46969 4.20632 405.691
379 1 1.9076 0.515061 406.194 1.9076 0.515061 406.194
378 1 1.26459 4.21318 403.82 1.26459 4.21318 403.82
377 1 1.04071 2.72535 407.129 1.04071 2.72535 407.129
383 1 4.28664 1.25153 406.694 4.28664 1.25153 406.694
380 1 2.77632 2.73281 405.254 2.77632 2.73281 405.254
382 1 3.64425 0.523874 404.327 3.64425 0.523874 404.327
384 1 5.15349 3.468 405.755 5.15349 3.468 405.755
385 1 6.02499 1.25995 404.821 6.02499 1.25995 404.821
387 1 6.88777 3.47485 403.885 6.88777 3.47485 403.885
388 1 7.53069 4.20418 406.258 7.53069 4.20418 406.258
386 1 6.66383 1.98704 407.193 6.66383 1.98704 407.193
389 1 8.39938 1.99445 405.318 8.39938 1.99445 405.318
391 1 9.26726 4.21297 404.391 9.26726 4.21297 404.391
392 1 9.90964 0.513149 406.758 9.90964 0.513149 406.758
393 1 10.7764 2.7296 405.819 10.7764 2.7296 405.819
394 1 11.6479 0.521538 404.885 11.6479 0.521538 404.885
396 1 12.5106 2.73644 403.948 12.5106 2.73644 403.948
397 1 13.1536 3.4657 406.322 13.1536 3.4657 406.322
395 1 12.2868 1.24858 407.257 12.2868 1.24858 407.257
398 1 14.0222 1.25594 405.382 14.0222 1.25594 405.382
400 1 14.89 3.47444 404.455 14.89 3.47444 404.455
401 1 15.5325 4.202 406.822 15.5325 4.202 406.822
402 1 16.3992 1.99097 405.882 16.3992 1.99097 405.882
403 1 17.2706 4.21031 404.948 17.2706 4.21031 404.948
405 1 18.1332 1.99772 404.012 18.1332 1.99772 404.012
406 1 18.7764 2.72688 406.385 18.7764 2.72688 406.385
409 1 20.5127 2.73549 404.518 20.5127 2.73549 404.518
410 1 21.1554 3.46292 406.885 21.1554 3.46292 406.885
407 1 19.6449 0.517056 405.445 19.6449 0.517056 405.445
404 1 17.9096 0.509816 407.321 17.9096 0.509816 407.321
412 1 22.8935 3.47107 405.01 22.8935 3.47107 405.01
411 1 22.022 1.25178 405.945 22.022 1.25178 405.945
415 1 24.3993 1.98693 406.447 24.3993 1.98693 406.447
414 1 23.7558 1.2583 404.074 23.7558 1.2583 404.074
416 1 25.2686 4.2042 405.506 25.2686 4.2042 405.506
413 1 23.5327 4.19763 407.383 23.5327 4.19763 407.383
418 1 26.1357 1.99454 404.578 26.1357 1.99454 404.578
419 1 26.7758 2.72369 406.949 26.7758 2.72369 406.949
420 1 27.0019 4.20443 403.625 27.0019 4.20443 403.625
421 1 27.6426 0.512676 406.008 27.6426 0.512676 406.008
422 1 28.5105 2.73224 405.077 28.5105 2.73224 405.077
424 1 29.3742 0.520242 404.137 29.3742 0.520242 404.137
426 1 30.8864 3.47158 405.576 30.8864 3.47158 405.576
425 1 30.0193 1.25211 406.511 30.0193 1.25211 406.511
430 1 32.6204 3.47862 403.706 32.6204 3.47862 403.706
428 1 31.7561 1.26365 404.642 31.7561 1.26365 404.642
429 1 32.3973 1.98909 407.013 32.3973 1.98909 407.013
432 1 34.1331 1.99623 405.139 34.1331 1.99623 405.139
431 1 33.2645 4.20647 406.078 33.2645 4.20647 406.078
435 1 35.6447 0.513976 406.577 35.6447 0.513976 406.577
436 1 36.5116 2.72997 405.637 36.5116 2.72997 405.637
434 1 35.002 4.21405 404.212 35.002 4.21405 404.212
440 1 38.2454 2.73671 403.766 38.2454 2.73671 403.766
438 1 37.3832 0.521793 404.703 37.3832 0.521793 404.703
439 1 38.0226 1.24846 407.075 38.0226 1.24846 407.075
442 1 39.7578 1.25577 405.199 39.7578 1.25577 405.199
441 1 38.8893 3.46547 406.139 38.8893 3.46547 406.139
444 1 40.6252 3.4743 404.271 40.6252 3.4743 404.271
446 1 42.1351 1.99044 405.698 42.1351 1.99044 405.698
445 1 41.2686 4.20142 406.638 41.2686 4.20142 406.638
450 1 43.8686 1.99723 403.826 43.8686 1.99723 403.826
451 1 44.5126 2.72614 406.2 44.5126 2.72614 406.2
448 1 43.0062 4.20983 404.763 43.0062 4.20983 404.763
449 1 43.6461 0.50899 407.135 43.6461 0.50899 407.135
452 1 45.3809 0.516407 405.259 45.3809 0.516407 405.259
454 1 46.2485 2.73489 404.332 46.2485 2.73489 404.332
457 1 48.6295 3.47053 404.824 48.6295 3.47053 404.824
455 1 46.8919 3.46215 406.698 46.8919 3.46215 406.698
456 1 47.7584 1.25115 405.758 47.7584 1.25115 405.758
459 1 49.4919 1.25794 403.887 49.4919 1.25794 403.887
458 1 49.2694 4.19724 407.196 49.2694 4.19724 407.196
460 1 50.1359 1.98693 406.26 50.1359 1.98693 406.26
463 1 51.8717 1.9957 404.392 51.8717 1.9957 404.392
461 1 51.0042 4.20465 405.32 51.0042 4.20465 405.32
464 1 52.5152 2.72302 406.759 52.5152 2.72302 406.759
465 1 53.3816 0.512029 405.819 53.3816 0.512029 405.819
468 1 55.1151 0.518854 403.948 55.1151 0.518854 403.948
466 1 54.2527 2.73142 404.885 54.2527 2.73142 404.885
469 1 55.7591 1.24789 406.321 55.7591 1.24789 406.321
467 1 54.8927 3.45819 407.257 54.8927 3.45819 407.257
470 1 56.6274 3.46562 405.381 56.6274 3.46562 405.381
472 1 57.4949 1.25668 404.453 57.4949 1.25668 404.453
475 1 59.8759 1.99247 404.945 59.8759 1.99247 404.945
473 1 58.1384 1.98406 406.82 58.1384 1.98406 406.82
474 1 59.0048 4.20053 405.88 59.0048 4.20053 405.88
477 1 60.7382 4.20736 404.008 60.7382 4.20736 404.008
481 1 63.118 0.517769 404.514 63.118 0.517769 404.514
478 1 61.3823 0.508996 406.382 61.3823 0.508996 406.382
479 1 62.2506 2.72672 405.441 62.2506 2.72672 405.441
482 1 63.7617 1.2452 406.88 63.7617 1.2452 406.88
476 1 60.5159 2.7193 407.318 60.5159 2.7193 407.318
483 1 64.628 3.46165 405.94 64.628 3.46165 405.94
486 1 66.3613 3.46844 404.069 66.3613 3.46844 404.069
488 1 67.8738 1.98778 405.501 67.8738 1.98778 405.501
484 1 65.499 1.25357 405.006 65.499 1.25357 405.006
487 1 67.0056 4.19756 406.442 67.0056 4.19756 406.442
485 1 66.1392 1.98045 407.378 66.1392 1.98045 407.378
490 1 68.7412 4.20624 404.574 68.7412 4.20624 404.574
493 1 70.2513 2.72259 406 70.2513 2.72259 406
491 1 69.385 0.50623 406.94 69.385 0.50623 406.94
494 1 71.1225 0.514465 405.065 71.1225 0.514465 405.065
492 1 69.6044 1.98939 403.623 69.6044 1.98939 403.623
496 1 71.9844 2.72918 404.128 71.9844 2.72918 404.128
497 1 72.6289 3.4579 406.501 72.6289 3.4579 406.501
500 1 74.3648 3.46561 404.631 74.3648 3.46561 404.631
498 1 73.498 1.24778 405.559 73.498 1.24778 405.559
502 1 75.2306 1.24807 403.678 75.2306 1.24807 403.678
501 1 75.0058 4.19491 407.002 75.0058 4.19491 407.002
503 1 75.8723 1.98394 406.061 75.8723 1.98394 406.061
506 1 77.6033 1.99158 404.189 77.6033 1.99158 404.189
507 1 78.2493 2.72369 406.564 78.2493 2.72369 406.564
504 1 76.7399 4.20354 405.129 76.7399 4.20354 405.129
508 1 79.1161 0.515741 405.627 79.1161 0.515741 405.627
510 1 79.9855 2.73529 404.694 79.9855 2.73529 404.694
512 1 80.8496 0.522814 403.758 80.8496 0.522814 403.758
514 1 82.3628 3.46821 405.19 82.3628 3.46821 405.19
516 1 83.2314 1.25857 404.263 83.2314 1.25857 404.263
513 1 81.4945 1.25099 406.129 81.4945 1.25099 406.129
511 1 80.6276 3.46105 407.064 80.6276 3.46105 407.064
517 1 83.8749 1.98637 406.628 83.8749 1.98637 406.628
523 1 87.1194 0.510826 406.189 87.1194 0.510826 406.189
520 1 85.6128 1.99411 404.754 85.6128 1.99411 404.754
518 1 84.7415 4.20234 405.688 84.7415 4.20234 405.688
522 1 86.4747 4.20899 403.817 86.4747 4.20899 403.817
521 1 86.2531 2.72135 407.125 86.2531 2.72135 407.125
526 1 88.8546 0.519469 404.321 88.8546 0.519469 404.321
528 1 90.365 3.46363 405.748 90.365 3.46363 405.748
524 1 87.9875 2.72848 405.249 87.9875 2.72848 405.249
529 1 91.2356 1.25537 404.813 91.2356 1.25537 404.813
527 1 89.4989 1.24732 406.688 89.4989 1.24732 406.688
536 1 95.1225 0.509566 406.748 95.1225 0.509566 406.748
531 1 92.0976 3.47002 403.877 92.0976 3.47002 403.877
533 1 93.6104 1.98995 405.31 93.6104 1.98995 405.31
532 1 92.7427 4.19999 406.25 92.7427 4.19999 406.25
535 1 94.4774 4.20807 404.382 94.4774 4.20807 404.382
530 1 91.8766 1.98306 407.185 91.8766 1.98306 407.185
538 1 96.8588 0.517074 404.874 96.8588 0.517074 404.874
541 1 98.3664 3.46369 406.311 98.3664 3.46369 406.311
540 1 97.7201 2.73119 403.938 97.7201 2.73119 403.938
537 1 95.9883 2.72566 405.808 95.9883 2.72566 405.808
539 1 97.5008 1.24655 407.246 97.5008 1.24655 407.246
546 1 101.618 1.99075 405.863 101.618 1.99075 405.863
544 1 100.099 3.4723 404.445 100.099 3.4723 404.445
542 1 99.2338 1.25396 405.371 99.2338 1.25396 405.371
547 1 102.488 4.21024 404.929 102.488 4.21024 404.929
545 1 100.75 4.20146 406.805 100.75 4.20146 406.805
553 1 105.733 2.73183 404.484 105.733 2.73183 404.484
550 1 103.998 2.72464 406.36 103.998 2.72464 406.36
554 1 106.376 3.46129 406.854 106.376 3.46129 406.854
549 1 103.356 1.9978 403.987 103.356 1.9978 403.987
551 1 104.866 0.514465 405.419 104.866 0.514465 405.419
548 1 103.13 0.507994 407.298 103.13 0.507994 407.298
560 1 -61.0519 0.49987 409.728 -61.0519 0.49987 409.728
558 1 -62.561 1.98053 408.291 -62.561 1.98053 408.291
562 1 -60.1852 2.71899 408.79 -60.1852 2.71899 408.79
559 1 -61.9186 2.70867 410.666 -61.9186 2.70867 410.666
556 1 -63.428 4.18952 409.229 -63.428 4.18952 409.229
273 1 -59.3194 0.51107 407.853 -59.3194 0.51107 407.853
565 1 -57.8081 3.45533 409.29 -57.8081 3.45533 409.29
568 1 -56.2977 1.97294 410.729 -56.2977 1.97294 410.729
567 1 -56.9404 1.24567 408.356 -56.9404 1.24567 408.356
564 1 -58.6753 1.23698 410.228 -58.6753 1.23698 410.228
563 1 -59.542 3.44586 411.165 -59.542 3.44586 411.165
573 1 -53.0502 0.497773 410.296 -53.0502 0.497773 410.296
571 1 -54.5604 1.97912 408.859 -54.5604 1.97912 408.859
283 1 -53.6901 4.19441 407.924 -53.6901 4.19441 407.924
569 1 -55.4295 4.1901 409.793 -55.4295 4.1901 409.793
574 1 -52.1807 2.71448 409.362 -52.1807 2.71448 409.362
572 1 -53.9191 2.7085 411.231 -53.9191 2.7085 411.231
576 1 -51.3113 0.503383 408.426 -51.3113 0.503383 408.426
578 1 -49.8019 3.45093 409.864 -49.8019 3.45093 409.864
289 1 -50.4419 2.72139 407.493 -50.4419 2.72139 407.493
580 1 -48.9331 1.24082 408.928 -48.9331 1.24082 408.928
577 1 -50.6711 1.23367 410.798 -50.6711 1.23367 410.798
293 1 -48.0647 3.45893 407.993 -48.0647 3.45893 407.993
299 1 -44.8177 1.98497 407.555 -44.8177 1.98497 407.555
583 1 -46.5545 1.97731 409.428 -46.5545 1.97731 409.428
585 1 -45.6861 4.19496 408.492 -45.6861 4.19496 408.492
582 1 -47.4232 4.18719 410.364 -47.4232 4.18719 410.364
586 1 -45.0447 0.495507 410.863 -45.0447 0.495507 410.863
589 1 -43.3076 0.503044 408.991 -43.3076 0.503044 408.991
591 1 -41.7979 3.44849 410.426 -41.7979 3.44849 410.426
303 1 -42.4397 2.72015 408.055 -42.4397 2.72015 408.055
587 1 -44.1762 2.7129 409.927 -44.1762 2.7129 409.927
592 1 -40.9293 1.23856 409.49 -40.9293 1.23856 409.49
309 1 -39.1929 1.24603 407.617 -39.1929 1.24603 407.617
594 1 -40.0612 3.45598 408.554 -40.0612 3.45598 408.554