ITEM: TIMESTEP
0
ITEM: NUMBER OF ATOMS
4630
ITEM: BOX BOUNDS xy xz yz pp pp pp
-6.4240988501800004e+01 1.0726002035000000e+02 0.0000000000000000e+00
0.0000000000000000e+00 4.4274527100805940e+00 0.0000000000000000e+00
3.8000000000000000e+02 5.0000000000000000e+02 0.0000000000000000e+00
ITEM: ATOMS id type x y z xu yu zu
27 1 -46.2877 1.9324 399.79 -46.2877 1.9324 399.79
36 1 -40.6283 1.19208 399.849 -40.6283 1.19208 399.849
31 1 -43.8858 2.63148 400.228 -43.8858 2.63148 400.228
22 1 -49.5179 3.38464 400.192 -49.5179 3.38464 400.192
20 1 -50.4141 1.16166 401.03 -50.4141 1.16166 401.03
40 1 -38.2283 1.89222 400.289 -38.2283 1.89222 400.289
34 1 -41.5011 3.3903 400.676 -41.5011 3.3903 400.676
17 1 -52.8028 0.412526 400.588 -52.8028 0.412526 400.588
9 1 -58.4324 1.10688 400.495 -58.4324 1.10688 400.495
43 1 -35.8441 2.65185 400.738 -35.8441 2.65185 400.738
12 1 -56.0722 1.91095 400.973 -56.0722 1.91095 400.973
5 1 -60.8267 0.420145 400.033 -60.8267 0.420145 400.033
29 1 -44.7555 0.402939 401.076 -44.7555 0.402939 401.076
853 1 -57.8746 2.62435 415.063 -57.8746 2.62435 415.063
873 1 -46.5558 1.14937 415.198 -46.5558 1.14937 415.198
865 1 -50.6975 0.411029 416.562 -50.6975 0.411029 416.562
1174 1 -37.8584 1.88392 418.125 -37.8584 1.88392 418.125
883 1 -40.8956 0.41053 415.264 -40.8956 0.41053 415.264
863 1 -52.2167 1.88797 415.13 -52.2167 1.88797 415.13
315 1 -36.0722 1.15722 404.01 -36.0722 1.15722 404.01
307 1 -41.082 2.63158 406.313 -41.082 2.63158 406.313
1150 1 -52.4448 0.409191 418.426 -52.4448 0.409191 418.426
855 1 -56.3559 1.14775 416.495 -56.3559 1.14775 416.495
310 1 -39.3345 2.63527 404.453 -39.3345 2.63527 404.453
871 1 -47.4302 3.36262 416.13 -47.4302 3.36262 416.13
16 1 -53.6733 2.61094 401.437 -53.6733 2.61094 401.437
309 1 -39.5627 1.15468 407.741 -39.5627 1.15468 407.741
1156 1 -49.1784 3.36143 417.993 -49.1784 3.36143 417.993
867 1 -49.8235 2.62542 415.63 -49.8235 2.62542 415.63
1159 1 -46.7853 4.0987 418.492 -46.7853 4.0987 418.492
1168 1 -41.1252 3.35982 418.558 -41.1252 3.35982 418.558
1170 1 -40.2511 1.14664 417.626 -40.2511 1.14664 417.626
594 1 -40.4366 3.36751 408.675 -40.4366 3.36751 408.675
37 1 -39.979 1.9001 402.117 -39.979 1.9001 402.117
851 1 -58.7476 0.409267 415.996 -58.7476 0.409267 415.996
857 1 -55.4828 3.36274 415.563 -55.4828 3.36274 415.563
592 1 -41.3103 1.15305 409.607 -41.3103 1.15305 409.607
849 1 -59.6207 2.6217 416.929 -59.6207 2.6217 416.929
877 1 -44.1627 1.8865 415.697 -44.1627 1.8865 415.697
1143 1 -57.229 3.3602 417.428 -57.229 3.3602 417.428
1140 1 -58.9753 3.35776 419.293 -58.9753 3.35776 419.293
845 1 -62.0122 1.88319 416.43 -62.0122 1.88319 416.43
875 1 -45.037 4.09974 416.629 -45.037 4.09974 416.629
886 1 -39.1476 0.411829 413.4 -39.1476 0.411829 413.4
891 1 -35.8815 3.36376 412.965 -35.8815 3.36376 412.965
39 1 -38.4653 0.414943 403.506 -38.4653 0.414943 403.506
1177 1 -36.3398 0.406893 419.555 -36.3398 0.406893 419.555
1167 1 -41.9993 1.14556 419.49 -41.9993 1.14556 419.49
8 1 -59.3112 3.36048 401.447 -59.3112 3.36048 401.447
869 1 -48.3044 1.14837 417.062 -48.3044 1.14837 417.062
1136 1 -61.367 2.61934 418.794 -61.367 2.61934 418.794
1162 1 -45.2663 2.62157 419.923 -45.2663 2.62157 419.923
15 1 -54.5498 0.418081 402.419 -54.5498 0.418081 402.419
280 1 -56.3024 0.412691 404.255 -56.3024 0.412691 404.255
277 1 -58.0634 0.422931 406.108 -58.0634 0.422931 406.108
273 1 -59.8131 0.420447 407.967 -59.8131 0.420447 407.967
560 1 -61.557 0.414732 409.834 -61.557 0.414732 409.834
557 1 -63.3023 0.411056 411.701 -63.3023 0.411056 411.701
26 1 -46.5047 0.423502 402.947 -46.5047 0.423502 402.947
294 1 -48.2568 0.423131 404.82 -48.2568 0.423131 404.82
291 1 -50.0059 0.416348 406.68 -50.0059 0.416348 406.68
576 1 -51.7548 0.414017 408.543 -51.7548 0.414017 408.543
573 1 -53.5058 0.414695 410.404 -53.5058 0.414695 410.404
570 1 -55.2549 0.414249 412.266 -55.2549 0.414249 412.266
854 1 -57.0015 0.411984 414.13 -57.0015 0.411984 414.13
305 1 -41.9544 0.417427 407.245 -41.9544 0.417427 407.245
589 1 -43.7028 0.415873 409.109 -43.7028 0.415873 409.109
586 1 -45.4513 0.414303 410.973 -45.4513 0.414303 410.973
872 1 -47.2001 0.413089 412.836 -47.2001 0.413089 412.836
599 1 -37.3998 0.413386 411.535 -37.3998 0.413386 411.535
1132 1 -63.7587 1.88103 418.296 -63.7587 1.88103 418.296
4 1 -61.1119 3.39046 403.228 -61.1119 3.39046 403.228
268 1 -62.8492 3.37113 405.093 -62.8492 3.37113 405.093
1152 1 -51.5713 2.6239 417.494 -51.5713 2.6239 417.494
19 1 -51.2986 3.35562 401.949 -51.2986 3.35562 401.949
286 1 -53.0369 3.3583 403.805 -53.0369 3.3583 403.805
282 1 -54.786 3.36402 405.677 -54.786 3.36402 405.677
279 1 -56.5427 3.36922 407.538 -56.5427 3.36922 407.538
565 1 -58.2931 3.36938 409.4 -58.2931 3.36938 409.4
563 1 -60.0386 3.36562 411.266 -60.0386 3.36562 411.266
846 1 -61.7842 3.36221 413.133 -61.7842 3.36221 413.133
32 1 -43.2402 3.36899 402.538 -43.2402 3.36899 402.538
300 1 -44.9909 3.37316 404.393 -44.9909 3.37316 404.393
297 1 -46.7407 3.37081 406.25 -46.7407 3.37081 406.25
293 1 -48.4883 3.3683 408.112 -48.4883 3.3683 408.112
578 1 -50.237 3.36629 409.975 -50.237 3.36629 409.975
575 1 -51.9871 3.3658 411.837 -51.9871 3.3658 411.837
860 1 -53.7358 3.36484 413.699 -53.7358 3.36484 413.699
591 1 -42.1845 3.36595 410.539 -42.1845 3.36595 410.539
588 1 -43.9328 3.36464 412.403 -43.9328 3.36464 412.403
874 1 -45.6814 3.36355 414.267 -45.6814 3.36355 414.267
10 1 -57.8125 1.87656 402.834 -57.8125 1.87656 402.834
274 1 -59.5873 1.90411 404.669 -59.5873 1.90411 404.669
271 1 -61.3325 1.89748 406.531 -61.3325 1.89748 406.531
558 1 -63.0746 1.89039 408.401 -63.0746 1.89039 408.401
24 1 -48.0412 1.88992 401.543 -48.0412 1.88992 401.543
21 1 -49.7809 1.89644 403.383 -49.7809 1.89644 403.383
288 1 -51.5212 1.89125 405.252 -51.5212 1.89125 405.252
285 1 -53.2712 1.88951 407.114 -53.2712 1.88951 407.114
571 1 -55.0245 1.89154 408.972 -55.0245 1.89154 408.972
568 1 -56.774 1.89156 410.834 -56.774 1.89156 410.834
852 1 -58.5202 1.88879 412.698 -58.5202 1.88879 412.698
848 1 -60.266 1.88577 414.564 -60.266 1.88577 414.564
306 1 -41.7285 1.89497 403.948 -41.7285 1.89497 403.948
302 1 -43.4735 1.89374 405.812 -43.4735 1.89374 405.812
299 1 -45.2213 1.89318 407.678 -45.2213 1.89318 407.678
583 1 -46.9697 1.89143 409.543 -46.9697 1.89143 409.543
581 1 -48.7187 1.88986 411.406 -48.7187 1.88986 411.406
866 1 -50.4682 1.88908 413.268 -50.4682 1.88908 413.268
880 1 -42.4142 1.88759 413.834 -42.4142 1.88759 413.834
312 1 -37.8165 1.15605 405.874 -37.8165 1.15605 405.874
2 1 -62.6439 0.438763 401.794 -62.6439 0.438763 401.794
13 1 -55.4193 2.62662 403.31 -55.4193 2.62662 403.31
278 1 -57.1807 2.63108 405.178 -57.1807 2.63108 405.178
275 1 -58.9393 2.63645 407.033 -58.9393 2.63645 407.033
562 1 -60.6847 2.6311 408.899 -60.6847 2.6311 408.899
559 1 -62.4294 2.6264 410.767 -62.4294 2.6264 410.767
1166 1 -42.8733 3.35874 420.422 -42.8733 3.35874 420.422
889 1 -36.7552 1.14926 413.898 -36.7552 1.14926 413.898
28 1 -45.6341 2.63803 402.057 -45.6341 2.63803 402.057
296 1 -47.3868 2.63518 403.887 -47.3868 2.63518 403.887
292 1 -49.1325 2.6334 405.748 -49.1325 2.6334 405.748
289 1 -50.8795 2.62902 407.613 -50.8795 2.62902 407.613
574 1 -52.6302 2.62829 409.475 -52.6302 2.62829 409.475
572 1 -54.3807 2.62856 411.335 -54.3807 2.62856 411.335
856 1 -56.1284 2.62701 413.198 -56.1284 2.62701 413.198
303 1 -42.8291 2.62993 408.177 -42.8291 2.62993 408.177
587 1 -44.5771 2.62871 410.041 -44.5771 2.62871 410.041
584 1 -46.3256 2.62735 411.905 -46.3256 2.62735 411.905
870 1 -48.0747 2.62635 413.768 -48.0747 2.62635 413.768
6 1 -60.2205 1.16909 402.315 -60.2205 1.16909 402.315
270 1 -61.9814 1.16638 404.154 -61.9814 1.16638 404.154
267 1 -63.7185 1.15412 406.033 -63.7185 1.15412 406.033
890 1 -36.1106 1.88524 416.26 -36.1106 1.88524 416.26
18 1 -52.1576 1.14666 402.897 -52.1576 1.14666 402.897
284 1 -53.9088 1.15115 404.756 -53.9088 1.15115 404.756
281 1 -55.6652 1.15325 406.612 -55.6652 1.15325 406.612
567 1 -57.4193 1.15675 408.469 -57.4193 1.15675 408.469
564 1 -59.1661 1.15391 410.333 -59.1661 1.15391 410.333
561 1 -60.9114 1.15008 412.199 -60.9114 1.15008 412.199
844 1 -62.6573 1.14711 414.066 -62.6573 1.14711 414.066
33 1 -42.3875 1.15261 401.598 -42.3875 1.15261 401.598
30 1 -44.1212 1.15267 403.445 -44.1212 1.15267 403.445
298 1 -45.8659 1.158 405.315 -45.8659 1.158 405.315
295 1 -47.6139 1.1562 407.181 -47.6139 1.1562 407.181
580 1 -49.3624 1.15313 409.044 -49.3624 1.15313 409.044
577 1 -51.1122 1.15209 410.906 -51.1122 1.15209 410.906
862 1 -52.8617 1.1517 412.767 -52.8617 1.1517 412.767
590 1 -43.0585 1.15162 411.471 -43.0585 1.15162 411.471
876 1 -44.8071 1.15034 413.335 -44.8071 1.15034 413.335
1163 1 -44.3922 0.408408 418.992 -44.3922 0.408408 418.992
1153 1 -50.9258 3.35973 419.857 -50.9258 3.35973 419.857
311 1 -38.6887 3.37 406.81 -38.6887 3.37 406.81
42 1 -36.731 0.414 401.66 -36.731 0.414 401.66
1135 1 -62.2403 0.40454 419.727 -62.2403 0.40454 419.727
1171 1 -39.6064 1.88275 419.989 -39.6064 1.88275 419.989
1139 1 -59.8485 1.14289 420.226 -59.8485 1.14289 420.226
601 1 -36.5262 2.62791 410.602 -36.5262 2.62791 410.602
313 1 -36.9396 3.37282 404.944 -36.9396 3.37282 404.944
858 1 -54.6094 1.15015 414.63 -54.6094 1.15015 414.63
868 1 -48.9492 0.412217 414.699 -48.9492 0.412217 414.699
1147 1 -54.8371 4.09856 417.927 -54.8371 4.09856 417.927
843 1 -63.5304 3.35962 414.999 -63.5304 3.35962 414.999
593 1 -40.666 1.88889 411.969 -40.666 1.88889 411.969
308 1 -40.2077 0.419302 405.376 -40.2077 0.419302 405.376
861 1 -53.0904 4.10081 416.062 -53.0904 4.10081 416.062
1158 1 -47.6593 1.88434 419.424 -47.6593 1.88434 419.424
884 1 -40.0216 2.62488 414.332 -40.0216 2.62488 414.332
881 1 -41.7698 2.62369 416.196 -41.7698 2.62369 416.196
885 1 -39.377 3.36095 416.694 -39.377 3.36095 416.694
859 1 -53.9638 1.886 416.994 -53.9638 1.886 416.994
596 1 -38.9183 1.89036 410.104 -38.9183 1.89036 410.104
879 1 -42.6439 0.409432 417.128 -42.6439 0.409432 417.128
1172 1 -38.7324 4.09705 419.057 -38.7324 4.09705 419.057
1154 1 -50.0522 1.14692 418.925 -50.0522 1.14692 418.925
887 1 -38.503 1.14785 415.762 -38.503 1.14785 415.762
597 1 -38.2737 2.62627 412.467 -38.2737 2.62627 412.467
1161 1 -45.9112 1.88553 417.561 -45.9112 1.88553 417.561
1138 1 -60.4938 0.406758 417.862 -60.4938 0.406758 417.862
1149 1 -53.3182 2.62183 419.358 -53.3182 2.62183 419.358
41 1 -37.5842 2.63084 402.599 -37.5842 2.63084 402.599
888 1 -37.6291 3.36225 414.83 -37.6291 3.36225 414.83
1165 1 -43.5181 2.62265 418.06 -43.5181 2.62265 418.06
1141 1 -58.1022 1.14523 418.36 -58.1022 1.14523 418.36
1145 1 -55.7103 1.88363 418.859 -55.7103 1.88363 418.859
600 1 -37.1713 1.89202 408.239 -37.1713 1.89202 408.239
1148 1 -54.1915 0.406972 420.29 -54.1915 0.406972 420.29
882 1 -41.5401 4.10192 412.901 -41.5401 4.10192 412.901
1157 1 -48.5331 4.09731 420.356 -48.5331 4.09731 420.356
1144 1 -56.5835 4.09616 419.792 -56.5835 4.09616 419.792
602 1 -35.6525 0.415239 409.67 -35.6525 0.415239 409.67
1131 1 -63.9869 0.402564 421.593 -63.9869 0.402564 421.593
1755 1 -36.1528 2.61387 428.508 -36.1528 2.61387 428.508
1460 1 -40.7094 2.61766 424.216 -40.7094 2.61766 424.216
2308 1 -50.547 3.3438 437.767 -50.547 3.3438 437.767
2316 1 -45.5344 1.87039 435.468 -45.5344 1.87039 435.468
2312 1 -48.1548 4.08151 438.265 -48.1548 4.08151 438.265
1464 1 -38.3167 3.3549 424.714 -38.3167 3.3549 424.714
1461 1 -39.8355 0.404532 423.284 -39.8355 0.404532 423.284
2039 1 -39.0025 3.34706 434.6 -39.0025 3.34706 434.6
2613 1 -40.9779 1.8669 439.76 -40.9779 1.8669 439.76
1467 1 -35.924 4.09217 425.213 -35.924 4.09217 425.213
2603 1 -46.636 2.60457 439.696 -46.636 2.60457 439.696
1443 1 -50.2803 4.09553 422.221 -50.2803 4.09553 422.221
1748 1 -40.0644 3.35364 426.578 -40.0644 3.35364 426.578
2023 1 -47.9266 1.13275 434.969 -47.9266 1.13275 434.969
2310 1 -49.0282 1.8669 439.198 -49.0282 1.8669 439.198
1151 1 -51.7993 1.145 420.789 -51.7993 1.145 420.789
2303 1 -53.8125 0.39139 438.201 -53.8125 0.39139 438.201
2299 1 -56.2046 4.08098 437.703 -56.2046 4.08098 437.703
2033 1 -42.2685 0.395062 435.034 -42.2685 0.395062 435.034
1433 1 -55.9381 0.404692 422.155 -55.9381 0.404692 422.155
1430 1 -57.6846 0.402496 424.02 -57.6846 0.402496 424.02
1426 1 -59.4312 0.400417 425.886 -59.4312 0.400417 425.886
1713 1 -61.1779 0.39845 427.751 -61.1779 0.39845 427.751
1710 1 -62.9246 0.396577 429.616 -62.9246 0.396577 429.616
2330 1 -36.8384 2.60604 438.393 -36.8384 2.60604 438.393
1160 1 -46.1402 0.407213 420.855 -46.1402 0.407213 420.855
1447 1 -47.8877 0.40569 422.719 -47.8877 0.40569 422.719
1444 1 -49.6348 0.403885 424.584 -49.6348 0.403885 424.584
1730 1 -51.3816 0.401933 426.449 -51.3816 0.401933 426.449
1727 1 -53.1284 0.399942 428.313 -53.1284 0.399942 428.313
1724 1 -54.8751 0.397966 430.178 -54.8751 0.397966 430.178
2008 1 -56.6218 0.396028 432.043 -56.6218 0.396028 432.043
2006 1 -58.3686 0.39413 433.909 -58.3686 0.39413 433.909
1458 1 -41.5833 0.403294 425.148 -41.5833 0.403294 425.148
1743 1 -43.3308 0.401893 427.012 -43.3308 0.401893 427.012
1740 1 -45.078 0.400319 428.877 -45.078 0.400319 428.877
2026 1 -46.825 0.398615 430.741 -46.825 0.398615 430.741
2022 1 -48.572 0.396837 432.606 -48.572 0.396837 432.606
2019 1 -50.3189 0.395025 434.471 -50.3189 0.395025 434.471
2309 1 -49.6735 1.13097 436.834 -49.6735 1.13097 436.834
1137 1 -60.7218 3.35552 421.158 -60.7218 3.35552 421.158
1421 1 -62.4684 3.35348 423.024 -62.4684 3.35348 423.024
1439 1 -52.6727 3.35766 421.722 -52.6727 3.35766 421.722
1435 1 -54.4193 3.35549 423.587 -54.4193 3.35549 423.587
1432 1 -56.1659 3.35335 425.452 -56.1659 3.35335 425.452
1719 1 -57.9125 3.35129 427.317 -57.9125 3.35129 427.317
1716 1 -59.6592 3.34931 429.182 -59.6592 3.34931 429.182
2001 1 -61.4059 3.34741 431.047 -61.4059 3.34741 431.047
1998 1 -63.1527 3.34557 432.912 -63.1527 3.34557 432.912
2323 1 -40.7497 3.34551 436.464 -40.7497 3.34551 436.464
1453 1 -44.6212 3.35754 422.286 -44.6212 3.35754 422.286
1450 1 -46.3687 3.35607 424.15 -46.3687 3.35607 424.15
1446 1 -48.1158 3.35436 426.015 -48.1158 3.35436 426.015
1732 1 -49.8628 3.35251 427.88 -49.8628 3.35251 427.88
1729 1 -51.6096 3.35059 429.744 -51.6096 3.35059 429.744
2014 1 -53.3564 3.34867 431.609 -53.3564 3.34867 431.609
2011 1 -55.1031 3.34677 433.474 -55.1031 3.34677 433.474
1745 1 -41.8118 3.35226 428.443 -41.8118 3.35226 428.443
1742 1 -43.5591 3.35073 430.307 -43.5591 3.35073 430.307
2028 1 -45.3062 3.34908 432.172 -45.3062 3.34908 432.172
2025 1 -47.0532 3.34735 434.037 -47.0532 3.34735 434.037
1427 1 -59.2032 1.87903 422.589 -59.2032 1.87903 422.589
1424 1 -60.9498 1.87696 424.455 -60.9498 1.87696 424.455
1711 1 -62.6965 1.87502 426.32 -62.6965 1.87502 426.32
2322 1 -41.6232 1.13098 437.397 -41.6232 1.13098 437.397
1750 1 -38.5455 1.87656 428.009 -38.5455 1.87656 428.009
1155 1 -49.4068 1.88273 421.288 -49.4068 1.88273 421.288
1441 1 -51.1537 1.88081 423.153 -51.1537 1.88081 423.153
1438 1 -52.9005 1.87875 425.018 -52.9005 1.87875 425.018
1725 1 -54.6472 1.87668 426.883 -54.6472 1.87668 426.883
1722 1 -56.3938 1.87466 428.748 -56.3938 1.87466 428.748
1718 1 -58.1405 1.87269 430.613 -58.1405 1.87269 430.613
2003 1 -59.8873 1.87078 432.478 -59.8873 1.87078 432.478
2000 1 -61.634 1.86892 434.343 -61.634 1.86892 434.343
1459 1 -41.3544 1.88163 421.853 -41.3544 1.88163 421.853
1455 1 -43.1022 1.88041 423.717 -43.1022 1.88041 423.717
1452 1 -44.8497 1.87898 425.581 -44.8497 1.87898 425.581
1737 1 -46.5969 1.87735 427.446 -46.5969 1.87735 427.446
1735 1 -48.3439 1.87558 429.31 -48.3439 1.87558 429.31
2020 1 -50.0908 1.87374 431.175 -50.0908 1.87374 431.175
2017 1 -51.8376 1.87187 433.04 -51.8376 1.87187 433.04
2034 1 -42.0402 1.87368 431.738 -42.0402 1.87368 431.738
2031 1 -43.7873 1.87207 433.603 -43.7873 1.87207 433.603
2029 1 -44.6609 4.08497 434.535 -44.6609 4.08497 434.535
1146 1 -55.0648 2.61955 421.223 -55.0648 2.61955 421.223
1431 1 -56.8113 2.61731 423.088 -56.8113 2.61731 423.088
1428 1 -58.5579 2.61517 424.953 -58.5579 2.61517 424.953
1715 1 -60.3045 2.61315 426.818 -60.3045 2.61315 426.818
1712 1 -62.0512 2.61123 428.683 -62.0512 2.61123 428.683
1708 1 -63.798 2.60939 430.549 -63.798 2.60939 430.549
1747 1 -40.2929 1.87518 429.874 -40.2929 1.87518 429.874
1449 1 -47.014 2.62022 421.787 -47.014 2.62022 421.787
1445 1 -48.7613 2.61854 423.652 -48.7613 2.61854 423.652
1442 1 -50.5082 2.61665 425.516 -50.5082 2.61665 425.516
1728 1 -52.255 2.61466 427.381 -52.255 2.61466 427.381
1726 1 -54.0017 2.61268 429.246 -54.0017 2.61268 429.246
2010 1 -55.7485 2.61072 431.111 -55.7485 2.61072 431.111
2007 1 -57.4952 2.6088 432.976 -57.4952 2.6088 432.976
1456 1 -42.457 2.61634 426.08 -42.457 2.61634 426.08
1741 1 -44.2044 2.61485 427.944 -44.2044 2.61485 427.944
1738 1 -45.9515 2.61321 429.809 -45.9515 2.61321 429.809
2024 1 -47.6985 2.61146 431.674 -47.6985 2.61146 431.674
2021 1 -49.4454 2.60966 433.539 -49.4454 2.60966 433.539
2035 1 -41.3949 2.60959 434.101 -41.3949 2.60959 434.101
1754 1 -36.7979 1.87783 426.145 -36.7979 1.87783 426.145
1423 1 -61.5951 1.14075 422.091 -61.5951 1.14075 422.091
1420 1 -63.3417 1.1388 423.956 -63.3417 1.1388 423.956
2044 1 -35.7363 1.87151 434.166 -35.7363 1.87151 434.166
1437 1 -53.546 1.14285 422.654 -53.546 1.14285 422.654
1434 1 -55.2926 1.14069 424.519 -55.2926 1.14069 424.519
1721 1 -57.0392 1.13858 426.384 -57.0392 1.13858 426.384
1717 1 -58.7859 1.13656 428.249 -58.7859 1.13656 428.249
1714 1 -60.5326 1.13463 430.114 -60.5326 1.13463 430.114
1999 1 -62.2793 1.13276 431.979 -62.2793 1.13276 431.979
1997 1 -64.026 1.13094 433.845 -64.026 1.13094 433.845
1164 1 -43.7473 1.14444 421.354 -43.7473 1.14444 421.354
1451 1 -45.495 1.14311 423.218 -45.495 1.14311 423.218
1448 1 -47.2423 1.14151 425.083 -47.2423 1.14151 425.083
1734 1 -48.9893 1.13972 426.947 -48.9893 1.13972 426.947
1731 1 -50.7362 1.13783 428.812 -50.7362 1.13783 428.812
2016 1 -52.483 1.13591 430.677 -52.483 1.13591 430.677
2012 1 -54.2298 1.13399 432.542 -54.2298 1.13399 432.542
2009 1 -55.9765 1.1321 434.407 -55.9765 1.1321 434.407
1746 1 -40.9381 1.13924 427.511 -40.9381 1.13924 427.511
1744 1 -42.6855 1.13778 429.375 -42.6855 1.13778 429.375
2030 1 -44.4327 1.13619 431.24 -44.4327 1.13619 431.24
2027 1 -46.1797 1.1345 433.104 -46.1797 1.1345 433.104
2325 1 -39.8761 1.13257 435.532 -39.8761 1.13257 435.532
1749 1 -39.4192 4.08961 428.941 -39.4192 4.08961 428.941
1425 1 -60.0765 4.0917 423.522 -60.0765 4.0917 423.522
1736 1 -47.4704 4.0902 428.378 -47.4704 4.0902 428.378
1142 1 -57.4567 1.88126 420.724 -57.4567 1.88126 420.724
1720 1 -57.2672 4.08739 429.68 -57.2672 4.08739 429.68
2005 1 -59.0139 4.08546 431.545 -59.0139 4.08546 431.545
2002 1 -60.7606 4.08357 433.41 -60.7606 4.08357 433.41
1169 1 -40.4804 4.09592 420.921 -40.4804 4.09592 420.921
1723 1 -55.5205 4.08939 427.815 -55.5205 4.08939 427.815
1440 1 -52.0271 4.09351 424.085 -52.0271 4.09351 424.085
1733 1 -49.2174 4.08839 430.243 -49.2174 4.08839 430.243
2018 1 -50.9642 4.08653 432.108 -50.9642 4.08653 432.108
2015 1 -52.711 4.08467 433.973 -52.711 4.08467 433.973
2036 1 -41.1666 4.08817 430.806 -41.1666 4.08817 430.806
2032 1 -42.9138 4.08661 432.67 -42.9138 4.08661 432.67
2326 1 -39.2308 1.86851 437.895 -39.2308 1.86851 437.895
1752 1 -37.6717 4.09093 427.077 -37.6717 4.09093 427.077
1457 1 -42.2284 4.09477 422.785 -42.2284 4.09477 422.785
2043 1 -36.3815 1.1355 431.803 -36.3815 1.1355 431.803
2286 1 -63.3807 1.86709 436.208 -63.3807 1.86709 436.208
2319 1 -43.3703 1.12932 439.262 -43.3703 1.12932 439.262
1436 1 -53.7738 4.09144 425.95 -53.7738 4.09144 425.95
1422 1 -61.8231 4.0897 425.387 -61.8231 4.0897 425.387
1173 1 -38.0876 0.405692 421.419 -38.0876 0.405692 421.419
2293 1 -59.47 1.1284 438.137 -59.47 1.1284 438.137
2289 1 -61.862 0.390423 437.639 -61.862 0.390423 437.639
2295 1 -57.9514 4.07916 439.568 -57.9514 4.07916 439.568
1465 1 -37.4428 1.14177 423.782 -37.4428 1.14177 423.782
2315 1 -45.7626 0.391706 438.763 -45.7626 0.391706 438.763
2331 1 -36.61 4.08452 435.098 -36.61 4.08452 435.098
2297 1 -57.078 1.86634 438.635 -57.078 1.86634 438.635
2324 1 -40.1044 4.08144 438.827 -40.1044 4.08144 438.827
2306 1 -51.4204 1.12918 438.699 -51.4204 1.12918 438.699
2285 1 -63.6088 0.388583 439.504 -63.6088 0.388583 439.504
1462 1 -39.1905 1.14056 425.646 -39.1905 1.14056 425.646
1751 1 -37.9003 2.61254 430.372 -37.9003 2.61254 430.372
2329 1 -37.4836 1.87005 436.03 -37.4836 1.87005 436.03
2042 1 -37.2552 3.34853 432.735 -37.2552 3.34853 432.735
2041 1 -38.1288 1.13408 433.667 -38.1288 1.13408 433.667
2593 1 -52.2938 3.34202 439.632 -52.2938 3.34202 439.632
2328 1 -37.712 0.391536 439.326 -37.712 0.391536 439.326
2301 1 -54.6859 2.60421 439.134 -54.6859 2.60421 439.134
1466 1 -36.5689 3.35609 422.85 -36.5689 3.35609 422.85
2298 1 -56.8499 3.3449 435.339 -56.8499 3.3449 435.339
2321 1 -42.4967 3.34388 438.329 -42.4967 3.34388 438.329
2313 1 -47.2813 1.86866 437.333 -47.2813 1.86866 437.333
2294 1 -58.5966 3.34304 437.204 -58.5966 3.34304 437.204
2304 1 -52.9391 2.60602 437.268 -52.9391 2.60602 437.268
2300 1 -55.3312 1.86817 436.77 -55.3312 1.86817 436.77
2290 1 -60.9887 2.60507 436.706 -60.9887 2.60507 436.706
2318 1 -44.0156 0.393411 436.898 -44.0156 0.393411 436.898
2327 1 -38.3572 4.08302 436.963 -38.3572 4.08302 436.963
2004 1 -59.2419 2.60692 434.841 -59.2419 2.60692 434.841
2013 1 -53.5844 1.87001 434.905 -53.5844 1.87001 434.905
2288 1 -62.5073 4.08173 435.275 -62.5073 4.08173 435.275
2037 1 -40.5213 0.396638 433.169 -40.5213 0.396638 433.169
1739 1 -45.7233 4.09192 426.513 -45.7233 4.09192 426.513
1753 1 -37.0266 0.399491 429.44 -37.0266 0.399491 429.44
2307 1 -51.1923 2.60784 435.403 -51.1923 2.60784 435.403
2314 1 -46.4079 4.08326 436.4 -46.4079 4.08326 436.4
2040 1 -38.774 0.398116 431.304 -38.774 0.398116 431.304
2320 1 -43.142 2.60797 435.966 -43.142 2.60797 435.966
2292 1 -60.1153 0.392266 435.774 -60.1153 0.392266 435.774
2311 1 -48.8001 3.34559 435.902 -48.8001 3.34559 435.902
2302 1 -54.4578 4.08281 435.838 -54.4578 4.08281 435.838
2296 1 -57.7233 1.13024 436.272 -57.7233 1.13024 436.272
1463 1 -38.9616 2.61884 422.352 -38.9616 2.61884 422.352
2287 1 -62.7354 2.60323 438.571 -62.7354 2.60323 438.571
2291 1 -60.3434 3.34121 439.07 -60.3434 3.34121 439.07
2317 1 -44.8891 2.60629 437.831 -44.8891 2.60629 437.831
2038 1 -39.6477 2.61112 432.237 -39.6477 2.61112 432.237
2305 1 -52.0657 0.393204 436.336 -52.0657 0.393204 436.336
2332 1 -35.9648 0.393064 437.461 -35.9648 0.393064 437.461
1709 1 -63.5699 4.08783 427.253 -63.5699 4.08783 427.253
1468 1 -35.695 1.14297 421.918 -35.695 1.14297 421.918
1454 1 -43.976 4.09345 424.649 -43.976 4.09345 424.649
1429 1 -58.33 4.09385 421.657 -58.33 4.09385 421.657
1133 1 -63.1136 2.61725 420.66 -63.1136 2.61725 420.66
1175 1 -37.2137 2.62001 420.487 -37.2137 2.62001 420.487
2616 1 -38.8139 1.1259 443.554 -38.8139 1.1259 443.554
2901 1 -40.5609 1.12421 445.418 -40.5609 1.12421 445.418
2907 1 -37.2951 4.07645 444.984 -37.2951 4.07645 444.984
3194 1 -38.3968 0.383283 449.212 -38.3968 0.383283 449.212
2587 1 -55.5593 0.38959 440.066 -55.5593 0.38959 440.066
2597 1 -49.9017 4.07975 440.13 -49.9017 4.07975 440.13
2584 1 -57.3061 0.387803 441.931 -57.3061 0.387803 441.931
2581 1 -59.0529 0.386018 443.796 -59.0529 0.386018 443.796
2868 1 -60.7996 0.38421 445.661 -60.7996 0.38421 445.661
2865 1 -62.5463 0.382349 447.527 -62.5463 0.382349 447.527
2601 1 -47.5095 0.389967 440.628 -47.5095 0.389967 440.628
2598 1 -49.2564 0.388215 442.493 -49.2564 0.388215 442.493
2885 1 -51.0033 0.38647 444.358 -51.0033 0.38647 444.358
2882 1 -52.7502 0.384748 446.223 -52.7502 0.384748 446.223
2879 1 -54.4972 0.383053 448.089 -54.4972 0.383053 448.089
2612 1 -41.2062 0.38827 443.055 -41.2062 0.38827 443.055
2898 1 -42.9532 0.38655 444.92 -42.9532 0.38655 444.92
2895 1 -44.7001 0.384794 446.785 -44.7001 0.384794 446.785
3180 1 -46.447 0.383034 448.65 -46.447 0.383034 448.65
2576 1 -62.0901 3.33937 440.935 -62.0901 3.33937 440.935
2574 1 -63.8368 3.33751 442.8 -63.8368 3.33751 442.8
2589 1 -54.0407 3.34024 441.497 -54.0407 3.34024 441.497
2586 1 -55.7875 3.33849 443.362 -55.7875 3.33849 443.362
2874 1 -57.5343 3.33674 445.227 -57.5343 3.33674 445.227
2871 1 -59.2811 3.33498 447.092 -59.2811 3.33498 447.092
3155 1 -61.0278 3.33319 448.958 -61.0278 3.33319 448.958
2607 1 -44.2438 3.34219 440.194 -44.2438 3.34219 440.194
2604 1 -45.9907 3.34046 442.059 -45.9907 3.34046 442.059
2600 1 -47.7377 3.33872 443.924 -47.7377 3.33872 443.924
2887 1 -49.4846 3.33697 445.789 -49.4846 3.33697 445.789
2884 1 -51.2315 3.33524 447.654 -51.2315 3.33524 447.654
3168 1 -52.9785 3.33354 449.519 -52.9785 3.33354 449.519
2900 1 -41.4344 3.33707 446.351 -41.4344 3.33707 446.351
2897 1 -43.1813 3.33531 448.216 -43.1813 3.33531 448.216
2582 1 -58.8247 1.86452 440.5 -58.8247 1.86452 440.5
2579 1 -60.5715 1.8627 442.365 -60.5715 1.8627 442.365
2866 1 -62.3182 1.86086 444.231 -62.3182 1.86086 444.231
2578 1 -61.2167 1.12656 440.002 -61.2167 1.12656 440.002
2595 1 -50.7751 1.86514 441.063 -50.7751 1.86514 441.063
2592 1 -52.522 1.86338 442.928 -52.522 1.86338 442.928
2880 1 -54.2689 1.86165 444.793 -54.2689 1.86165 444.793
2877 1 -56.0158 1.85994 446.658 -56.0158 1.85994 446.658
2873 1 -57.7626 1.85823 448.523 -57.7626 1.85823 448.523
2609 1 -42.725 1.86523 441.625 -42.725 1.86523 441.625
2606 1 -44.472 1.8635 443.49 -44.472 1.8635 443.49
2892 1 -46.2189 1.86175 445.355 -46.2189 1.86175 445.355
2890 1 -47.9658 1.86 447.22 -47.9658 1.86 447.22
3174 1 -49.7128 1.85827 449.085 -49.7128 1.85827 449.085
2618 1 -37.9403 3.34045 442.621 -37.9403 3.34045 442.621
2585 1 -56.4327 2.60242 440.999 -56.4327 2.60242 440.999
2583 1 -58.1795 2.60064 442.864 -58.1795 2.60064 442.864
2870 1 -59.9263 2.59884 444.729 -59.9263 2.59884 444.729
2867 1 -61.673 2.59701 446.594 -61.673 2.59701 446.594
2863 1 -63.4196 2.59511 448.459 -63.4196 2.59511 448.459
2599 1 -48.383 2.60282 441.561 -48.383 2.60282 441.561
2596 1 -50.1299 2.60107 443.426 -50.1299 2.60107 443.426
2883 1 -51.8768 2.59933 445.291 -51.8768 2.59933 445.291
2881 1 -53.6237 2.59762 447.156 -53.6237 2.59762 447.156
3164 1 -55.3706 2.59594 449.021 -55.3706 2.59594 449.021
2610 1 -42.0797 2.60114 443.988 -42.0797 2.60114 443.988
2896 1 -43.8266 2.5994 445.853 -43.8266 2.5994 445.853
2893 1 -45.5736 2.59764 447.718 -45.5736 2.59764 447.718
3178 1 -47.3205 2.59589 449.583 -47.3205 2.59589 449.583
2575 1 -62.9635 1.12472 441.867 -62.9635 1.12472 441.867
2591 1 -53.1673 1.1274 440.564 -53.1673 1.1274 440.564
2588 1 -54.9141 1.12564 442.429 -54.9141 1.12564 442.429
2876 1 -56.6609 1.12389 444.295 -56.6609 1.12389 444.295
2872 1 -58.4077 1.12214 446.16 -58.4077 1.12214 446.16
2869 1 -60.1545 1.12037 448.025 -60.1545 1.12037 448.025
2605 1 -45.1173 1.12761 441.126 -45.1173 1.12761 441.126
2602 1 -46.8642 1.12586 442.991 -46.8642 1.12586 442.991
2889 1 -48.6111 1.12411 444.856 -48.6111 1.12411 444.856
2886 1 -50.3581 1.12238 446.722 -50.3581 1.12238 446.722
3170 1 -52.105 1.12067 448.587 -52.105 1.12067 448.587
2899 1 -42.3078 1.12247 447.283 -42.3078 1.12247 447.283
3184 1 -44.0547 1.1207 449.148 -44.0547 1.1207 449.148
2580 1 -59.6981 4.07734 441.433 -59.6981 4.07734 441.433
2577 1 -61.4448 4.07551 443.298 -61.4448 4.07551 443.298
2864 1 -63.1915 4.07364 445.163 -63.1915 4.07364 445.163
2862 1 -64.0648 1.85896 446.096 -64.0648 1.85896 446.096
2594 1 -51.6486 4.07798 441.995 -51.6486 4.07798 441.995
2590 1 -53.3954 4.07624 443.86 -53.3954 4.07624 443.86
2878 1 -55.1423 4.07452 445.725 -55.1423 4.07452 445.725
2875 1 -56.8892 4.07281 447.591 -56.8892 4.07281 447.591
3159 1 -58.636 4.0711 449.456 -58.636 4.0711 449.456
2611 1 -41.8515 4.0798 440.692 -41.8515 4.0798 440.692
2608 1 -43.5985 4.0781 442.557 -43.5985 4.0781 442.557
2894 1 -45.3454 4.07636 444.422 -45.3454 4.07636 444.422
2891 1 -47.0924 4.0746 446.287 -47.0924 4.0746 446.287
2888 1 -48.8393 4.07285 448.152 -48.8393 4.07285 448.152
2904 1 -39.0421 4.07476 446.849 -39.0421 4.07476 446.849
2621 1 -36.1932 3.34204 440.757 -36.1932 3.34204 440.757
2617 1 -38.5856 2.60447 440.258 -38.5856 2.60447 440.258
2614 1 -40.3327 2.60284 442.123 -40.3327 2.60284 442.123
2908 1 -36.6498 0.385011 447.347 -36.6498 0.385011 447.347
2619 1 -37.0668 1.12753 441.689 -37.0668 1.12753 441.689
2906 1 -37.5233 2.59788 448.28 -37.5233 2.59788 448.28
2905 1 -38.1686 1.86188 445.917 -38.1686 1.86188 445.917
2620 1 -36.4215 1.86354 444.052 -36.4215 1.86354 444.052
3190 1 -40.789 4.07301 448.714 -40.789 4.07301 448.714
2902 1 -39.9156 1.86016 447.781 -39.9156 1.86016 447.781
2903 1 -39.6874 3.33879 444.486 -39.6874 3.33879 444.486
2615 1 -39.4591 0.389936 441.191 -39.4591 0.389936 441.191
2909 1 -35.7763 2.59957 446.415 -35.7763 2.59957 446.415
14 1 -55.2009 4.14112 400.147 -55.2009 4.14112 400.147
7 1 -59.9288 2.63271 399.235 -59.9288 2.63271 399.235
25 1 -47.1529 4.13046 400.621 -47.1529 4.13046 400.621
38 1 -39.0999 4.09084 401.137 -39.0999 4.09084 401.137
23 1 -48.9028 4.11322 402.481 -48.9028 4.11322 402.481
287 1 -52.3965 4.10167 406.178 -52.3965 4.10167 406.178
878 1 -43.2884 4.10073 414.766 -43.2884 4.10073 414.766
579 1 -49.5935 4.10321 412.337 -49.5935 4.10321 412.337
585 1 -46.0955 4.10611 408.611 -46.0955 4.10611 408.611
290 1 -50.6521 4.10392 404.314 -50.6521 4.10392 404.314
11 1 -56.9445 4.09314 401.912 -56.9445 4.09314 401.912
595 1 -39.7921 4.10333 411.037 -39.7921 4.10333 411.037
1134 1 -62.8854 4.09579 417.363 -62.8854 4.09579 417.363
283 1 -54.1479 4.10371 408.041 -54.1479 4.10371 408.041
582 1 -47.8441 4.10428 410.474 -47.8441 4.10428 410.474
276 1 -58.704 4.11154 403.761 -58.704 4.11154 403.761
569 1 -55.8997 4.10564 409.902 -55.8997 4.10564 409.902
847 1 -61.139 4.09815 415.497 -61.139 4.09815 415.497
556 1 -63.9473 4.1023 409.336 -63.9473 4.1023 409.336
272 1 -60.4633 4.1163 405.6 -60.4633 4.1163 405.6
3 1 -61.7531 2.64873 400.913 -61.7531 2.64873 400.913
35 1 -40.8482 4.11292 403.006 -40.8482 4.11292 403.006
598 1 -38.0445 4.10512 409.172 -38.0445 4.10512 409.172
850 1 -59.393 4.10095 413.631 -59.393 4.10095 413.631
304 1 -42.596 4.11039 404.883 -42.596 4.11039 404.883