ITEM: TIMESTEP
0
ITEM: NUMBER OF ATOMS
4630
ITEM: BOX BOUNDS xy xz yz pp pp pp
-6.2939219687492269e+01 1.0595825153569227e+02 0.0000000000000000e+00
0.0000000000000000e+00 4.4274527100805940e+00 0.0000000000000000e+00
3.8000000000000000e+02 5.0000000000000000e+02 0.0000000000000000e+00
ITEM: ATOMS id type x y z xu yu zu
7 1 -58.7349 2.91255 398.872 -58.7349 2.91255 398.872
27 1 -45.3167 2.20344 399.409 -45.3167 2.20344 399.409
36 1 -39.7356 1.46123 399.465 -39.7356 1.46123 399.465
45 1 -34.1585 0.721358 399.527 -34.1585 0.721358 399.527
85 1 -8.64535 0.722848 399.354 -8.64535 0.722848 399.354
94 1 -3.0651 4.40856 399.415 -3.0651 4.40856 399.415
103 1 2.50991 3.6698 399.481 2.50991 3.6698 399.481
112 1 8.08308 2.93162 399.548 8.08308 2.93162 399.548
152 1 33.5715 2.94161 399.383 33.5715 2.94161 399.383
161 1 39.147 2.20068 399.443 39.147 2.20068 399.443
170 1 44.718 1.46227 399.506 44.718 1.46227 399.506
227 1 81.3439 4.41924 399.435 81.3439 4.41924 399.435
236 1 86.9212 3.67761 399.489 86.9212 3.67761 399.489
245 1 92.4945 2.93846 399.547 92.4945 2.93846 399.547
5 1 -59.6412 0.696035 399.67 -59.6412 0.696035 399.67
2 1 -61.4087 0.708839 401.466 -61.4087 0.708839 401.466
3 1 -60.5562 2.92134 400.559 -60.5562 2.92134 400.559
1 1 -62.2504 2.89066 402.414 106.647 2.89066 402.414
4 1 -59.8971 3.63883 402.901 -59.8971 3.63883 402.901
9 1 -57.2626 1.36247 400.131 -57.2626 1.36247 400.131
8 1 -58.1356 3.61939 401.094 -58.1356 3.61939 401.094
10 1 -56.6541 2.12898 402.495 -56.6541 2.12898 402.495
6 1 -59.0259 1.42538 401.97 -59.0259 1.42538 401.97
11 1 -55.7994 4.35317 401.574 -55.7994 4.35317 401.574
12 1 -54.9417 2.17837 400.618 -54.9417 2.17837 400.618
16 1 -52.5737 2.87268 401.079 -52.5737 2.87268 401.079
15 1 -53.4385 0.669648 402.067 -53.4385 0.669648 402.067
14 1 -54.1036 4.40784 399.777 -54.1036 4.40784 399.777
17 1 -51.7195 0.673996 400.218 -51.7195 0.673996 400.218
13 1 -54.2921 2.872 402.975 -54.2921 2.872 402.975
22 1 -48.4991 3.64707 399.818 -48.4991 3.64707 399.818
20 1 -49.3655 1.42602 400.669 -49.3655 1.42602 400.669
19 1 -50.2357 3.61555 401.605 -50.2357 3.61555 401.605
18 1 -51.0822 1.39752 402.551 -51.0822 1.39752 402.551
21 1 -48.7387 2.14459 403.047 -48.7387 2.14459 403.047
23 1 -47.8768 4.36874 402.128 -47.8768 4.36874 402.128
26 1 -45.5104 0.672864 402.598 -45.5104 0.672864 402.598
24 1 -47.0285 2.15689 401.191 -47.0285 2.15689 401.191
28 1 -44.6546 2.89368 401.693 -44.6546 2.89368 401.693
25 1 -46.158 4.40173 400.251 -46.158 4.40173 400.251
29 1 -43.787 0.666915 400.706 -43.787 0.666915 400.706
31 1 -42.9297 2.89552 399.848 -42.9297 2.89552 399.848
34 1 -40.5799 3.65981 400.306 -40.5799 3.65981 400.306
32 1 -42.295 3.62371 402.181 -42.295 3.62371 402.181
33 1 -41.4534 1.41618 401.244 -41.4534 1.41618 401.244
30 1 -43.1619 1.40058 403.102 -43.1619 1.40058 403.102
35 1 -39.9335 4.36026 402.655 -39.9335 4.36026 402.655
40 1 -37.351 2.15486 399.908 -37.351 2.15486 399.908
37 1 -39.0785 2.15319 401.751 -39.0785 2.15319 401.751
41 1 -36.7187 2.88355 402.242 -36.7187 2.88355 402.242
38 1 -38.2089 4.35347 400.765 -38.2089 4.35347 400.765
39 1 -37.5859 0.660778 403.161 -37.5859 0.660778 403.161
43 1 -35.0024 2.91992 400.367 -35.0024 2.91992 400.367
42 1 -35.8762 0.67606 401.305 -35.8762 0.67606 401.305
44 1 -34.3572 3.62023 402.717 -34.3572 3.62023 402.717
46 1 -33.5018 1.4132 401.813 -33.5018 1.4132 401.813
47 1 -32.632 3.61363 400.827 -32.632 3.61363 400.827
49 1 -31.7741 1.415 399.97 -31.7741 1.415 399.97
52 1 -29.426 2.18009 400.43 -29.426 2.18009 400.43
50 1 -31.1425 2.14363 402.304 -31.1425 2.14363 402.304
51 1 -30.2998 4.36366 401.367 -30.2998 4.36366 401.367
53 1 -28.7812 2.88023 402.78 -28.7812 2.88023 402.78
54 1 -28.5822 4.40895 399.589 -28.5822 4.40895 399.589
48 1 -32.0098 4.34829 403.224 -32.0098 4.34829 403.224
58 1 -26.198 0.675006 400.033 -26.198 0.675006 400.033
59 1 -25.5668 1.40358 402.368 -25.5668 1.40358 402.368
56 1 -27.0559 2.87368 400.89 -27.0559 2.87368 400.89
55 1 -27.9258 0.673203 401.876 -27.9258 0.673203 401.876
60 1 -24.7241 3.62364 401.431 -24.7241 3.62364 401.431
57 1 -26.4341 3.60826 403.287 -26.4341 3.60826 403.287
61 1 -23.8503 1.44005 400.493 -23.8503 1.44005 400.493
63 1 -23.0067 3.6689 399.653 -23.0067 3.6689 399.653
62 1 -23.2057 2.14 402.843 -23.2057 2.14 402.843
64 1 -22.3503 4.3604 401.94 -22.3503 4.3604 401.94
65 1 -21.4806 2.13336 400.954 -21.4806 2.13336 400.954
66 1 -20.859 2.86788 403.351 -20.859 2.86788 403.351
70 1 -18.2754 0.699388 400.557 -18.2754 0.699388 400.557
68 1 -19.9915 0.663153 402.432 -19.9915 0.663153 402.432
69 1 -19.1493 2.883 401.495 -19.1493 2.883 401.495
67 1 -20.6227 4.36211 400.096 -20.6227 4.36211 400.096
72 1 -17.4337 2.9279 399.716 -17.4337 2.9279 399.716
71 1 -17.6302 1.39944 402.907 -17.6302 1.39944 402.907
75 1 -15.0507 3.62186 400.158 -15.0507 3.62186 400.158
74 1 -15.9058 1.39324 401.017 -15.9058 1.39324 401.017
73 1 -16.7761 3.61957 402.003 -16.7761 3.61957 402.003
76 1 -14.416 4.34573 402.49 -14.416 4.34573 402.49
77 1 -13.5673 2.13565 401.545 -13.5673 2.13565 401.545
348 1 -15.2809 2.12484 403.41 -15.2809 2.12484 403.41
80 1 -11.8283 2.16677 399.76 -11.8283 2.16677 399.76
81 1 -11.2082 2.88856 402.071 -11.2082 2.88856 402.071
78 1 -12.6961 4.37323 400.611 -12.6961 4.37323 400.611
79 1 -12.0715 0.664745 402.988 -12.0715 0.664745 402.988
83 1 -9.48741 2.92116 400.196 -9.48741 2.92116 400.196
82 1 -10.3591 0.676406 401.134 -10.3591 0.676406 401.134
87 1 -7.11666 3.61387 400.653 -7.11666 3.61387 400.653
84 1 -8.84177 3.62001 402.543 -8.84177 3.62001 402.543
86 1 -7.98524 1.41323 401.639 -7.98524 1.41323 401.639
89 1 -6.25879 1.415 399.795 -6.25879 1.415 399.795
90 1 -5.62612 2.14338 402.13 -5.62612 2.14338 402.13
88 1 -6.49367 4.34774 403.049 -6.49367 4.34774 403.049
92 1 -3.90965 2.17967 400.255 -3.90965 2.17967 400.255
93 1 -3.26513 2.88005 402.605 -3.26513 2.88005 402.605
91 1 -4.7838 4.36337 401.192 -4.7838 4.36337 401.192
96 1 -1.53937 2.87354 400.717 -1.53937 2.87354 400.717
95 1 -2.40962 0.673067 401.702 -2.40962 0.673067 401.702
98 1 -0.681121 0.674959 399.86 -0.681121 0.674959 399.86
100 1 0.79209 3.62415 401.259 0.79209 3.62415 401.259
99 1 -0.0508638 1.40387 402.195 -0.0508638 1.40387 402.195
97 1 -0.918438 3.60838 403.114 -0.918438 3.60838 403.114
101 1 1.66618 1.44085 400.321 1.66618 1.44085 400.321
102 1 2.30969 2.14086 402.672 2.30969 2.14086 402.672
105 1 4.0355 2.13491 400.783 4.0355 2.13491 400.783
104 1 3.16526 4.36154 401.768 3.16526 4.36154 401.768
108 1 5.52318 0.665238 402.262 5.52318 0.665238 402.262
107 1 4.89345 4.3638 399.926 4.89345 4.3638 399.926
106 1 4.65571 2.86956 403.181 4.65571 2.86956 403.181
110 1 7.23991 0.702663 400.388 7.23991 0.702663 400.388
111 1 7.88316 1.40231 402.739 7.88316 1.40231 402.739
109 1 6.36606 2.88578 401.326 6.36606 2.88578 401.326
113 1 8.73852 3.62312 401.836 8.73852 3.62312 401.836
114 1 9.60864 1.39671 400.85 9.60864 1.39671 400.85
116 1 10.4663 3.6256 399.993 10.4663 3.6256 399.993
118 1 11.9385 2.1477 401.393 11.9385 2.1477 401.393
117 1 11.0958 4.35443 402.329 11.0958 4.35443 402.329
121 1 13.6547 2.19364 399.615 13.6547 2.19364 399.615
120 1 13.4553 0.66401 402.807 13.4553 0.66401 402.807
119 1 12.8121 4.39214 400.455 12.8121 4.39214 400.455
115 1 10.2285 2.13117 403.249 10.2285 2.13117 403.249
122 1 14.3104 2.88491 401.903 14.3104 2.88491 401.903
123 1 15.1803 0.65864 400.917 15.1803 0.65864 400.917
125 1 16.0376 2.8875 400.06 16.0376 2.8875 400.06
126 1 16.6671 3.61626 402.397 16.6671 3.61626 402.397
127 1 17.5096 1.40965 401.461 17.5096 1.40965 401.461
124 1 15.8002 1.39293 403.316 15.8002 1.39293 403.316
130 1 19.2248 1.45563 399.681 19.2248 1.45563 399.681
128 1 18.3828 3.65415 400.522 18.3828 3.65415 400.522
129 1 19.0263 4.35311 402.874 19.0263 4.35311 402.874
131 1 19.8811 2.14659 401.969 19.8811 2.14659 401.969
132 1 20.7505 4.34778 400.984 20.7505 4.34778 400.984
133 1 21.3707 0.654446 403.383 21.3707 0.654446 403.383
134 1 21.6076 2.14915 400.126 21.6076 2.14915 400.126
136 1 23.0792 0.670981 401.527 23.0792 0.670981 401.527
135 1 22.2375 2.87777 402.463 22.2375 2.87777 402.463
139 1 24.792 0.716586 399.746 24.792 0.716586 399.746
137 1 23.9523 2.91546 400.588 23.9523 2.91546 400.588
138 1 24.5969 3.61442 402.939 24.5969 3.61442 402.939
141 1 26.3199 3.60955 401.048 26.3199 3.60955 401.048
140 1 25.4501 1.40764 402.034 25.4501 1.40764 402.034
142 1 27.1739 1.41078 400.189 27.1739 1.41078 400.189
143 1 27.8079 2.13456 402.522 27.8079 2.13456 402.522
144 1 28.656 4.35269 401.577 28.656 4.35269 401.577
145 1 29.5261 2.16329 400.642 29.5261 2.16329 400.642
147 1 30.3919 4.38424 399.79 30.3919 4.38424 399.79
146 1 30.1505 2.88157 403.021 30.1505 2.88157 403.021
150 1 32.7312 0.712428 400.226 32.7312 0.712428 400.226
148 1 31.0128 0.67856 402.102 31.0128 0.67856 402.102
149 1 31.8609 2.89471 401.166 31.8609 2.89471 401.166
153 1 34.2329 3.63132 401.669 34.2329 3.63132 401.669
151 1 33.3774 1.41017 402.574 33.3774 1.41017 402.574
156 1 35.9573 3.63371 399.824 35.9573 3.63371 399.824
154 1 35.1005 1.40509 400.683 35.1005 1.40509 400.683
157 1 36.5902 4.36192 402.16 36.5902 4.36192 402.16
155 1 35.7237 2.13835 403.08 35.7237 2.13835 403.08
158 1 37.4315 2.15506 401.223 37.4315 2.15506 401.223
159 1 38.3045 4.39923 400.284 38.3045 4.39923 400.284
162 1 39.8042 2.89192 401.73 39.8042 2.89192 401.73
160 1 38.9498 0.671081 402.635 38.9498 0.671081 402.635
163 1 40.6734 0.665501 400.744 40.6734 0.665501 400.744
165 1 41.5304 2.89437 399.886 41.5304 2.89437 399.886
164 1 41.2951 1.39965 403.143 41.2951 1.39965 403.143
168 1 43.8762 3.66079 400.347 43.8762 3.66079 400.347
167 1 43.0034 1.41631 401.286 43.0034 1.41631 401.286
166 1 42.1615 3.62299 402.222 42.1615 3.62299 402.222
169 1 44.521 4.35978 402.698 44.521 4.35978 402.698
171 1 45.3754 2.1533 401.793 45.3754 2.1533 401.793
174 1 47.1012 2.15599 399.949 47.1012 2.15599 399.949
175 1 47.7323 2.8845 402.285 47.7323 2.8845 402.285
172 1 46.2445 4.35457 400.807 46.2445 4.35457 400.807
173 1 46.866 0.66106 403.206 46.866 0.66106 403.206
177 1 49.4467 2.9225 400.41 49.4467 2.9225 400.41
176 1 48.5741 0.67796 401.349 48.5741 0.67796 401.349
179 1 50.2881 0.72397 399.568 50.2881 0.72397 399.568
181 1 51.8148 3.6162 400.869 51.8148 3.6162 400.869
178 1 50.0916 3.62127 402.761 50.0916 3.62127 402.761
180 1 50.9458 1.41485 401.856 50.9458 1.41485 401.856
183 1 52.6712 1.41761 400.011 52.6712 1.41761 400.011
184 1 53.3025 2.14603 402.347 53.3025 2.14603 402.347
186 1 55.0166 2.18409 400.471 55.0166 2.18409 400.471
187 1 55.6618 2.88273 402.822 55.6618 2.88273 402.822
188 1 55.8577 4.413 399.63 55.8577 4.413 399.63
185 1 54.1442 4.36699 401.411 54.1442 4.36699 401.411
182 1 52.4364 4.35 403.268 52.4364 4.35 403.268
189 1 56.5158 0.676324 401.917 56.5158 0.676324 401.917
192 1 58.2409 0.679097 400.072 58.2409 0.679097 400.072
194 1 59.7139 3.62841 401.472 59.7139 3.62841 401.472
193 1 58.8725 1.40745 402.409 58.8725 1.40745 402.409
190 1 57.3846 2.8777 400.931 57.3846 2.8777 400.931
191 1 58.0065 3.6114 403.33 58.0065 3.6114 403.33
195 1 60.5861 1.4455 400.532 60.5861 1.4455 400.532
197 1 61.427 3.67439 399.691 61.427 3.67439 399.691
199 1 62.9541 2.139 400.992 62.9541 2.139 400.992
196 1 61.2317 2.14405 402.883 61.2317 2.14405 402.883
198 1 62.0855 4.36508 401.978 62.0855 4.36508 401.978
200 1 63.5765 2.87265 403.39 63.5765 2.87265 403.39
202 1 64.4422 0.66866 402.469 64.4422 0.66866 402.469
201 1 63.8102 4.36782 400.133 63.8102 4.36782 400.133
206 1 66.996 2.93552 399.75 66.996 2.93552 399.75
204 1 66.1554 0.706644 400.592 66.1554 0.706644 400.592
203 1 65.2834 2.88961 401.532 65.2834 2.88961 401.532
205 1 66.8014 1.40509 402.943 66.8014 1.40509 402.943
207 1 67.6551 3.62607 402.038 67.6551 3.62607 402.038
209 1 69.3793 3.62866 400.192 69.3793 3.62866 400.192
208 1 68.5233 1.39987 401.051 68.5233 1.39987 401.051
211 1 70.8525 2.15008 401.591 70.8525 2.15008 401.591
210 1 70.0119 4.35688 402.528 70.0119 4.35688 402.528
212 1 71.7245 4.39448 400.651 71.7245 4.39448 400.651
214 1 72.5632 2.19556 399.808 72.5632 2.19556 399.808
217 1 74.9457 2.88945 400.248 74.9457 2.88945 400.248
216 1 74.0927 0.660797 401.108 74.0927 0.660797 401.108
215 1 73.224 2.88638 402.095 73.224 2.88638 402.095
213 1 72.3718 0.665716 403.001 72.3718 0.665716 403.001
218 1 75.5825 3.61294 402.581 75.5825 3.61294 402.581
220 1 77.2988 3.64146 400.698 77.2988 3.64146 400.698
219 1 76.4296 1.40352 401.634 76.4296 1.40352 401.634
222 1 78.1639 1.43495 399.846 78.1639 1.43495 399.846
223 1 78.7873 2.15653 402.157 78.7873 2.15653 402.157
221 1 77.9259 4.35963 403.076 77.9259 4.35963 403.076
224 1 79.6346 4.37251 401.219 79.6346 4.37251 401.219
225 1 80.5041 2.19009 400.279 80.5041 2.19009 400.279
229 1 82.8743 2.8826 400.732 82.8743 2.8826 400.732
228 1 82.0075 0.681546 401.72 82.0075 0.681546 401.72
226 1 81.1528 2.88795 402.626 81.1528 2.88795 402.626
231 1 83.7304 0.683748 399.873 83.7304 0.683748 399.873
234 1 86.0789 1.44873 400.331 86.0789 1.44873 400.331
233 1 85.2065 3.63221 401.27 85.2065 3.63221 401.27
235 1 86.7265 2.14834 402.68 86.7265 2.14834 402.68
232 1 84.3659 1.41184 402.208 84.3659 1.41184 402.208
230 1 83.5002 3.61585 403.129 83.5002 3.61585 403.129
241 1 89.9387 0.672322 402.265 89.9387 0.672322 402.265
238 1 88.4488 2.14235 400.789 88.4488 2.14235 400.789
240 1 89.3054 4.37119 399.93 89.3054 4.37119 399.93
237 1 87.5803 4.36902 401.775 87.5803 4.36902 401.775
239 1 89.0729 2.87666 403.186 89.0729 2.87666 403.186
242 1 90.7801 2.89279 401.328 90.7801 2.89279 401.328
243 1 91.6524 0.709535 400.389 91.6524 0.709535 400.389
247 1 94.0216 1.40291 400.847 94.0216 1.40291 400.847
246 1 93.1532 3.62963 401.834 93.1532 3.62963 401.834
244 1 92.2992 1.40896 402.739 92.2992 1.40896 402.739
254 1 98.0649 2.19683 399.606 98.0649 2.19683 399.606
249 1 94.8785 3.6317 399.989 94.8785 3.6317 399.989
253 1 97.872 0.669663 402.798 97.872 0.669663 402.798
251 1 96.352 2.15277 401.387 96.352 2.15277 401.387
252 1 97.2253 4.39634 400.448 97.2253 4.39634 400.448
250 1 95.5113 4.36029 402.324 95.5113 4.36029 402.324
248 1 94.6452 2.13743 403.245 94.6452 2.13743 403.245
258 1 100.447 2.88815 400.048 100.447 2.88815 400.048
255 1 98.7247 2.88938 401.893 98.7247 2.88938 401.893
259 1 101.079 3.62604 402.388 101.079 3.62604 402.388
260 1 101.92 1.42199 401.459 101.92 1.42199 401.459
256 1 99.5951 0.66189 400.907 99.5951 0.66189 400.907
257 1 100.217 1.40231 403.307 100.217 1.40231 403.307
263 1 103.621 1.46215 399.696 103.621 1.46215 399.696
261 1 102.775 3.66822 400.517 102.775 3.66822 400.517
264 1 104.318 2.15056 401.932 104.318 2.15056 401.932
265 1 105.16 4.34689 400.969 105.16 4.34689 400.969
262 1 103.449 4.35981 402.85 103.449 4.35981 402.85
266 1 105.797 0.658533 403.357 105.797 0.658533 403.357
268 1 -61.6013 3.60787 404.794 -61.6013 3.60787 404.794
271 1 -60.1052 2.12145 406.241 -60.1052 2.12145 406.241
270 1 -60.7476 1.40823 403.844 -60.7476 1.40823 403.844
267 1 -62.4573 1.38406 405.74 -62.4573 1.38406 405.74
272 1 -59.2514 4.3464 405.299 -59.2514 4.3464 405.299
269 1 -60.9623 4.32488 407.187 -60.9623 4.32488 407.187
277 1 -56.8894 0.649165 405.805 -56.8894 0.649165 405.805
274 1 -58.393 2.14168 404.354 -58.393 2.14168 404.354
278 1 -56.0237 2.86483 404.862 -56.0237 2.86483 404.862
275 1 -57.7485 2.85546 406.742 -57.7485 2.85546 406.742
276 1 -57.5297 4.35656 403.433 -57.5297 4.35656 403.433
279 1 -55.3887 3.58477 407.247 -55.3887 3.58477 407.247
280 1 -55.1603 0.653217 403.931 -55.1603 0.653217 403.931
286 1 -51.9457 3.60254 403.474 -51.9457 3.60254 403.474
282 1 -53.6638 3.59332 405.365 -53.6638 3.59332 405.365
284 1 -52.802 1.38674 404.431 -52.802 1.38674 404.431
281 1 -54.5271 1.37601 406.31 -54.5271 1.37601 406.31
285 1 -52.1688 2.10917 406.814 -52.1688 2.10917 406.814
291 1 -48.9528 0.640088 406.374 -48.9528 0.640088 406.374
288 1 -50.4497 2.12562 404.932 -50.4497 2.12562 404.932
292 1 -48.0941 2.86355 405.432 -48.0941 2.86355 405.432
287 1 -51.3093 4.32909 405.87 -51.3093 4.32909 405.87
290 1 -49.5946 4.34628 403.987 -49.5946 4.34628 403.987
294 1 -47.2333 0.659531 404.491 -47.2333 0.659531 404.491
297 1 -45.7364 3.59679 405.935 -45.7364 3.59679 405.935
296 1 -46.3772 2.87915 403.551 -46.3772 2.87915 403.551
298 1 -44.8767 1.39054 404.989 -44.8767 1.39054 404.989
295 1 -46.5953 1.37519 406.876 -46.5953 1.37519 406.876
300 1 -44.0167 3.61252 404.056 -44.0167 3.61252 404.056
306 1 -40.8007 2.13755 403.609 -40.8007 2.13755 403.609
302 1 -42.5185 2.12293 405.49 -42.5185 2.12293 405.49
304 1 -41.6555 4.34603 404.549 -41.6555 4.34603 404.549
301 1 -43.3769 4.33002 406.435 -43.3769 4.33002 406.435
305 1 -41.0195 0.635456 406.935 -41.0195 0.635456 406.935
307 1 -40.1609 2.85653 405.994 -40.1609 2.85653 405.994
310 1 -38.4413 2.87266 404.115 -38.4413 2.87266 404.115
312 1 -36.9432 1.38337 405.551 -36.9432 1.38337 405.551
311 1 -37.8018 3.5903 406.495 -37.8018 3.5903 406.495
308 1 -39.3007 0.65048 405.049 -39.3007 0.65048 405.049
313 1 -36.0801 3.60632 404.61 -36.0801 3.60632 404.61
315 1 -35.2247 1.39771 403.67 -35.2247 1.39771 403.67
316 1 -34.5856 2.11692 406.056 -34.5856 2.11692 406.056
317 1 -33.7252 4.33814 405.111 -33.7252 4.33814 405.111
314 1 -35.4445 4.32337 406.996 -35.4445 4.32337 406.996
319 1 -32.8654 2.13276 404.177 -32.8654 2.13276 404.177
320 1 -32.2265 2.85058 406.557 -32.2265 2.85058 406.557
324 1 -29.6489 0.657748 403.733 -29.6489 0.657748 403.733
321 1 -31.3677 0.64352 405.613 -31.3677 0.64352 405.613
322 1 -30.5044 2.86639 404.673 -30.5044 2.86639 404.673
323 1 -29.8692 3.58355 407.059 -29.8692 3.58355 407.059
325 1 -29.0102 1.377 406.119 -29.0102 1.377 406.119
328 1 -27.2898 1.39273 404.24 -27.2898 1.39273 404.24
326 1 -28.1496 3.59816 405.174 -28.1496 3.59816 405.174
329 1 -26.6512 2.11059 406.621 -26.6512 2.11059 406.621
330 1 -25.7923 4.33093 405.677 -25.7923 4.33093 405.677
331 1 -24.929 2.12629 404.736 -24.929 2.12629 404.736
337 1 -21.7144 0.652453 404.304 -21.7144 0.652453 404.304
334 1 -23.4349 0.63687 406.182 -23.4349 0.63687 406.182
335 1 -22.5743 2.85794 405.238 -22.5743 2.85794 405.238
333 1 -24.0734 4.34505 403.796 -24.0734 4.34505 403.796
338 1 -21.0759 1.37034 406.685 -21.0759 1.37034 406.685
332 1 -24.294 2.84348 407.123 -24.294 2.84348 407.123
340 1 -19.3535 1.38587 404.8 -19.3535 1.38587 404.8
342 1 -18.4983 3.60447 403.86 -18.4983 3.60447 403.86
339 1 -20.2171 3.59056 405.74 -20.2171 3.59056 405.74
344 1 -16.9982 2.11648 405.3 -16.9982 2.11648 405.3
343 1 -17.8597 4.32328 406.246 -17.8597 4.32328 406.246
341 1 -18.7187 2.1028 407.186 -18.7187 2.1028 407.186
347 1 -15.5035 0.630746 406.751 -15.5035 0.630746 406.751
349 1 -14.6446 2.85135 405.807 -14.6446 2.85135 405.807
346 1 -16.139 4.33768 404.366 -16.139 4.33768 404.366
350 1 -13.7849 0.647219 404.87 -13.7849 0.647219 404.87
351 1 -13.1471 1.36687 407.256 -13.1471 1.36687 407.256
353 1 -12.2877 3.58874 406.314 -12.2877 3.58874 406.314
352 1 -12.9284 2.86709 403.927 -12.9284 2.86709 403.927
354 1 -11.4284 1.38425 405.373 -11.4284 1.38425 405.373
356 1 -10.5666 3.60725 404.434 -10.5666 3.60725 404.434
358 1 -9.70957 1.39904 403.494 -9.70957 1.39904 403.494
357 1 -9.93 4.32325 406.819 -9.93 4.32325 406.819
363 1 -6.71104 2.85009 406.382 -6.71104 2.85009 406.382
359 1 -9.07045 2.11706 405.879 -9.07045 2.11706 405.879
362 1 -7.34923 2.13233 404.002 -7.34923 2.13233 404.002
360 1 -8.20998 4.338 404.935 -8.20998 4.338 404.935
364 1 -5.85198 0.642856 405.438 -5.85198 0.642856 405.438
368 1 -4.13293 0.657344 403.558 -4.13293 0.657344 403.558
366 1 -4.98836 2.86585 404.498 -4.98836 2.86585 404.498
369 1 -3.4948 1.37649 405.945 -3.4948 1.37649 405.945
367 1 -4.35393 3.58293 406.885 -4.35393 3.58293 406.885
370 1 -2.63408 3.59788 405 -2.63408 3.59788 405
372 1 -1.77426 1.39266 404.067 -1.77426 1.39266 404.067
376 1 0.586095 2.12662 404.564 0.586095 2.12662 404.564
373 1 -1.1363 2.11042 406.448 -1.1363 2.11042 406.448
374 1 -0.277305 4.33102 405.504 -0.277305 4.33102 405.504
379 1 2.07932 0.63743 406.011 2.07932 0.63743 406.011
378 1 1.44182 4.34563 403.625 1.44182 4.34563 403.625
377 1 1.22018 2.84375 406.951 1.22018 2.84375 406.951
383 1 4.43741 1.37149 406.515 4.43741 1.37149 406.515
380 1 2.94001 2.85883 405.067 2.94001 2.85883 405.067
382 1 3.79993 0.653666 404.134 3.79993 0.653666 404.134
384 1 5.29639 3.59214 405.572 5.29639 3.59214 405.572
385 1 6.15975 1.38783 404.632 6.15975 1.38783 404.632
387 1 7.01542 3.60698 403.692 7.01542 3.60698 403.692
388 1 7.65258 4.32615 406.079 7.65258 4.32615 406.079
386 1 6.79351 2.10495 407.019 6.79351 2.10495 407.019
389 1 8.51317 2.12018 405.135 8.51317 2.12018 405.135
391 1 9.37295 4.34257 404.201 9.37295 4.34257 404.201
392 1 10.0103 0.632873 406.583 10.0103 0.632873 406.583
393 1 10.8691 2.85361 405.639 10.8691 2.85361 405.639
394 1 11.7323 0.64938 404.699 11.7323 0.64938 404.699
396 1 12.5878 2.86863 403.76 12.5878 2.86863 403.76
397 1 13.2249 3.5877 406.147 13.2249 3.5877 406.147
395 1 12.366 1.36643 407.087 12.366 1.36643 407.087
398 1 14.0853 1.38178 405.202 14.0853 1.38178 405.202
400 1 14.9448 3.60423 404.269 14.9448 3.60423 404.269
401 1 15.5822 4.3219 406.651 15.5822 4.3219 406.651
402 1 16.4409 2.11523 405.707 16.4409 2.11523 405.707
403 1 17.3038 4.33848 404.767 17.3038 4.33848 404.767
405 1 18.1591 2.13031 403.827 18.1591 2.13031 403.827
406 1 18.7964 2.84929 406.214 18.7964 2.84929 406.214
409 1 20.5159 2.8658 404.336 20.5159 2.8658 404.336
410 1 21.1535 3.58338 406.718 21.1535 3.58338 406.718
407 1 19.6565 0.643345 405.27 19.6565 0.643345 405.27
404 1 17.9376 0.628003 407.155 17.9376 0.628003 407.155
412 1 22.8748 3.59989 404.833 22.8748 3.59989 404.833
411 1 22.0119 1.37666 405.774 22.0119 1.37666 405.774
415 1 24.3674 2.10996 406.28 24.3674 2.10996 406.28
414 1 23.7294 1.39158 403.893 23.7294 1.39158 403.893
416 1 25.2282 4.33107 405.334 25.2282 4.33107 405.334
413 1 23.509 4.31647 407.221 23.509 4.31647 407.221
418 1 26.0867 2.12531 404.399 26.0867 2.12531 404.399
419 1 26.7218 2.84548 406.786 26.7218 2.84548 406.786
420 1 26.944 4.34058 403.443 26.944 4.34058 403.443
421 1 27.58 0.639165 405.841 27.58 0.639165 405.841
422 1 28.4389 2.863 404.904 28.4389 2.863 404.904
424 1 29.2946 0.656011 403.961 29.2946 0.656011 403.961
426 1 30.7937 3.60044 405.407 30.7937 3.60044 405.407
425 1 29.9352 1.37704 406.348 29.9352 1.37704 406.348
430 1 32.5107 3.61624 403.527 32.5107 3.61624 403.527
428 1 31.6546 1.39645 404.467 31.6546 1.39645 404.467
429 1 32.2913 2.11187 406.853 32.2913 2.11187 406.853
432 1 34.0095 2.12755 404.968 34.0095 2.12755 404.968
431 1 33.15 4.3336 405.913 33.15 4.3336 405.913
435 1 35.5079 0.639462 406.415 35.5079 0.639462 406.415
436 1 36.366 2.86016 405.47 36.366 2.86016 405.47
434 1 34.8692 4.34981 404.034 34.8692 4.34981 404.034
440 1 38.0831 2.87552 403.589 38.0831 2.87552 403.589
438 1 37.2286 0.656122 404.529 37.2286 0.656122 404.529
439 1 37.8636 1.37253 406.917 37.8636 1.37253 406.917
442 1 39.5815 1.38828 405.03 39.5815 1.38828 405.03
441 1 38.7218 3.59396 405.976 38.7218 3.59396 405.976
444 1 40.4403 3.6109 404.096 40.4403 3.6109 404.096
446 1 41.9372 2.12151 405.533 41.9372 2.12151 405.533
445 1 41.0792 4.32796 406.478 41.0792 4.32796 406.478
450 1 43.6542 2.13685 403.652 43.6542 2.13685 403.652
451 1 44.2928 2.85535 406.039 44.2928 2.85535 406.039
448 1 42.7995 4.34491 404.592 42.7995 4.34491 404.592
449 1 43.4346 0.633855 406.98 43.4346 0.633855 406.98
452 1 45.1525 0.649616 405.093 45.1525 0.649616 405.093
454 1 46.0113 2.87223 404.159 46.0113 2.87223 404.159
457 1 48.3704 3.60629 404.655 48.3704 3.60629 404.655
455 1 46.6501 3.58931 406.541 46.6501 3.58931 406.541
456 1 47.5081 1.38285 405.596 47.5081 1.38285 405.596
459 1 49.225 1.39829 403.715 49.225 1.39829 403.715
458 1 49.0055 4.32264 407.043 49.0055 4.32264 407.043
460 1 49.8636 2.1167 406.102 49.8636 2.1167 406.102
463 1 51.5819 2.13365 404.222 51.5819 2.13365 404.222
461 1 50.7232 4.33845 405.156 50.7232 4.33845 405.156
464 1 52.2209 2.85066 406.603 52.2209 2.85066 406.603
465 1 53.0787 0.644227 405.659 53.0787 0.644227 405.659
468 1 54.7953 0.659731 403.777 54.7953 0.659731 403.777
466 1 53.9409 2.8677 404.717 53.9409 2.8677 404.717
469 1 55.4342 1.37806 406.164 55.4342 1.37806 406.164
467 1 54.5763 3.58398 407.105 54.5763 3.58398 407.105
470 1 56.2937 3.59983 405.218 56.2937 3.59983 405.218
472 1 57.1522 1.39505 404.283 57.1522 1.39505 404.283
475 1 59.5111 2.12904 404.779 59.5111 2.12904 404.779
473 1 57.7914 2.112 406.665 57.7914 2.112 406.665
474 1 58.6491 4.33302 405.72 58.6491 4.33302 405.72
477 1 60.3654 4.34852 403.838 60.3654 4.34852 403.838
481 1 62.7223 0.656313 404.344 62.7223 0.656313 404.344
478 1 61.0047 0.639366 406.225 61.0047 0.639366 406.225
479 1 61.8639 2.86112 405.279 61.8639 2.86112 405.279
482 1 63.3619 1.37326 406.726 63.3619 1.37326 406.726
476 1 60.1469 2.84529 407.166 60.1469 2.84529 407.166
483 1 64.2195 3.59426 405.78 64.2195 3.59426 405.78
486 1 65.9354 3.60966 403.898 65.9354 3.60966 403.898
488 1 67.4342 2.12219 405.339 67.4342 2.12219 405.339
484 1 65.0813 1.39023 404.839 65.0813 1.39023 404.839
487 1 66.5751 4.32798 406.285 66.5751 4.32798 406.285
485 1 65.7174 2.1065 407.226 65.7174 2.1065 407.226
490 1 68.2925 4.34477 404.404 68.2925 4.34477 404.404
493 1 69.7899 2.85517 405.84 69.7899 2.85517 405.84
491 1 68.9326 0.634299 406.785 68.9326 0.634299 406.785
494 1 70.6518 0.651068 404.898 70.6518 0.651068 404.898
492 1 69.1462 2.13351 403.45 69.1462 2.13351 403.45
496 1 71.5054 2.8703 403.956 71.5054 2.8703 403.956
497 1 72.1459 3.58818 406.343 72.1459 3.58818 406.343
500 1 73.8632 3.60369 404.46 73.8632 3.60369 404.46
498 1 73.0057 1.38194 405.395 73.0057 1.38194 405.395
502 1 74.7196 1.39152 403.502 74.7196 1.39152 403.502
501 1 74.5008 4.32342 406.846 74.5008 4.32342 406.846
503 1 75.3581 2.11719 405.9 75.3581 2.11719 405.9
506 1 77.0709 2.13409 404.017 77.0709 2.13409 404.017
507 1 77.714 2.85484 406.404 77.714 2.85484 406.404
504 1 76.2161 4.34107 404.961 76.2161 4.34107 404.961
508 1 78.5716 0.65084 405.462 78.5716 0.65084 405.462
510 1 79.4317 2.87431 404.52 79.4317 2.87431 404.52
512 1 80.2869 0.666604 403.579 80.2869 0.666604 403.579
514 1 81.7874 3.60522 405.018 81.7874 3.60522 405.018
516 1 82.6464 1.39998 404.084 82.6464 1.39998 404.084
513 1 80.9287 1.38383 405.964 80.9287 1.38383 405.964
511 1 80.0708 3.58952 406.906 80.0708 3.58952 406.906
517 1 83.2874 2.11703 406.463 83.2874 2.11703 406.463
523 1 86.5016 0.643977 406.021 86.5016 0.643977 406.021
520 1 85.0067 2.13359 404.576 85.0067 2.13359 404.576
518 1 84.1448 4.33769 405.518 84.1448 4.33769 405.518
522 1 85.8604 4.35287 403.635 85.8604 4.35287 403.635
521 1 85.6441 2.85005 406.963 85.6441 2.85005 406.963
526 1 88.2188 0.660679 404.14 88.2188 0.660679 404.14
528 1 89.7173 3.59886 405.575 89.7173 3.59886 405.575
524 1 87.3606 2.86566 405.075 87.3606 2.86566 405.075
529 1 90.579 1.39462 404.634 90.579 1.39462 404.634
527 1 88.8599 1.37801 406.521 88.8599 1.37801 406.521
536 1 94.4325 0.639779 406.579 94.4325 0.639779 406.579
531 1 91.4331 3.61376 403.693 91.4331 3.61376 403.693
533 1 92.933 2.12686 405.133 92.933 2.12686 405.133
532 1 92.074 4.33285 406.079 92.074 4.33285 406.079
535 1 93.7913 4.34914 404.198 93.7913 4.34914 404.198
530 1 91.2164 2.11153 407.02 91.2164 2.11153 407.02
538 1 96.1517 0.656073 404.693 96.1517 0.656073 404.693
541 1 97.6467 3.59578 406.138 97.6467 3.59578 406.138
540 1 97.0054 2.87488 403.752 97.0054 2.87488 403.752
537 1 95.2899 2.86047 405.634 95.2899 2.86047 405.634
539 1 96.7894 1.37421 407.079 96.7894 1.37421 407.079
546 1 100.867 2.12361 405.688 100.867 2.12361 405.688
544 1 99.3628 3.61299 404.259 99.3628 3.61299 404.259
542 1 98.5056 1.39023 405.193 98.5056 1.39023 405.193
547 1 101.728 4.34691 404.747 101.728 4.34691 404.747
545 1 100.008 4.33003 406.635 100.008 4.33003 406.635
553 1 104.942 2.87038 404.303 104.942 2.87038 404.303
550 1 103.224 2.85512 406.188 103.224 2.85512 406.188
554 1 105.582 3.58936 406.686 105.582 3.58936 406.686
549 1 102.588 2.13871 403.801 102.588 2.13871 403.801
551 1 104.083 0.648901 405.242 104.083 0.648901 405.242
548 1 102.366 0.634242 407.132 102.366 0.634242 407.132
560 1 -60.3221 0.614414 409.574 -60.3221 0.614414 409.574
558 1 -61.8194 2.10191 408.13 -61.8194 2.10191 408.13
562 1 -59.4639 2.83712 408.63 -59.4639 2.83712 408.63
559 1 -61.1802 2.81947 410.517 -61.1802 2.81947 410.517
556 1 -62.6779 4.30708 409.074 -62.6779 4.30708 409.074
273 1 -58.6068 0.632755 407.687 -58.6068 0.632755 407.687
565 1 -57.1077 3.57071 409.131 -57.1077 3.57071 409.131
568 1 -55.6095 2.08223 410.577 -55.6095 2.08223 410.577
567 1 -56.2492 1.365 408.19 -56.2492 1.365 408.19
564 1 -57.966 1.3486 410.075 -57.966 1.3486 410.075
563 1 -58.8241 3.55375 411.018 -58.8241 3.55375 411.018
573 1 -52.3925 0.609358 410.138 -52.3925 0.609358 410.138
571 1 -53.8908 2.09672 408.694 -53.8908 2.09672 408.694
283 1 -53.03 4.31624 407.752 -53.03 4.31624 407.752
569 1 -54.7505 4.30348 409.634 -54.7505 4.30348 409.634
574 1 -51.5323 2.83028 409.198 -51.5323 2.83028 409.198
572 1 -53.2522 2.81585 411.08 -53.2522 2.81585 411.08
576 1 -50.6721 0.623461 408.256 -50.6721 0.623461 408.256
578 1 -49.1743 3.5646 409.701 -49.1743 3.5646 409.701
289 1 -49.8119 2.84552 407.316 -49.8119 2.84552 407.316
580 1 -48.3145 1.35858 408.759 -48.3145 1.35858 408.759
577 1 -50.0344 1.34323 410.642 -50.0344 1.34323 410.642
293 1 -47.4549 3.58061 407.818 -47.4549 3.58061 407.818
299 1 -44.2373 2.10813 407.375 -44.2373 2.10813 407.375
583 1 -45.9565 2.09256 409.26 -45.9565 2.09256 409.26
585 1 -45.0968 4.31419 408.319 -45.0968 4.31419 408.319
582 1 -46.8163 4.29848 410.202 -46.8163 4.29848 410.202
586 1 -44.4585 0.604455 410.703 -44.4585 0.604455 410.703
589 1 -42.739 0.619979 408.819 -42.739 0.619979 408.819
591 1 -41.2412 3.55918 410.262 -41.2412 3.55918 410.262
303 1 -41.8798 2.84116 407.877 -41.8798 2.84116 407.877
587 1 -43.5989 2.82586 409.761 -43.5989 2.82586 409.761
592 1 -40.3813 1.35321 409.32 -40.3813 1.35321 409.32
309 1 -38.662 1.36848 407.436 -38.662 1.36848 407.436