ITEM: TIMESTEP
0
ITEM: NUMBER OF ATOMS
4630
ITEM: BOX BOUNDS xy xz yz pp pp pp
-6.4096652591333196e+01 1.0711568443953320e+02 0.0000000000000000e+00
0.0000000000000000e+00 4.4274527100805940e+00 0.0000000000000000e+00
3.8000000000000000e+02 5.0000000000000000e+02 0.0000000000000000e+00
ITEM: ATOMS id type x y z xu yu zu
27 1 -46.1777 1.96464 399.747 -46.1777 1.96464 399.747
36 1 -40.527 1.22413 399.806 -40.527 1.22413 399.806
31 1 -43.7775 2.66301 400.186 -43.7775 2.66301 400.186
22 1 -49.4026 3.41595 400.151 -49.4026 3.41595 400.151
20 1 -50.2956 1.19314 400.99 -50.2956 1.19314 400.99
40 1 -38.1287 1.92361 400.247 -38.1287 1.92361 400.247
34 1 -41.3967 3.42235 400.635 -41.3967 3.42235 400.635
17 1 -52.6804 0.44376 400.547 -52.6804 0.44376 400.547
9 1 -58.3003 1.1375 400.455 -58.3003 1.1375 400.455
43 1 -35.7485 2.68374 400.697 -35.7485 2.68374 400.697
12 1 -55.9446 1.94274 400.933 -55.9446 1.94274 400.933
5 1 -60.6928 0.453 399.993 -60.6928 0.453 399.993
29 1 -44.6459 0.434403 401.035 -44.6459 0.434403 401.035
853 1 -57.7416 2.64325 415.039 -57.7416 2.64325 415.039
873 1 -46.4419 1.16815 415.173 -46.4419 1.16815 415.173
865 1 -50.5765 0.428553 416.539 -50.5765 0.428553 416.539
1174 1 -37.7588 1.90006 418.102 -37.7588 1.90006 418.102
883 1 -40.7912 0.429256 415.238 -40.7912 0.429256 415.238
863 1 -52.0932 1.90679 415.106 -52.0932 1.90679 415.106
315 1 -35.9762 1.18589 403.972 -35.9762 1.18589 403.972
307 1 -40.978 2.65835 406.277 -40.978 2.65835 406.277
1150 1 -52.3206 0.425008 418.405 -52.3206 0.425008 418.405
855 1 -56.2253 1.16533 416.472 -56.2253 1.16533 416.472
310 1 -39.2335 2.66353 404.416 -39.2335 2.66353 404.416
871 1 -47.3147 3.38056 416.106 -47.3147 3.38056 416.106
16 1 -53.5492 2.64213 401.397 -53.5492 2.64213 401.397
309 1 -39.4611 1.18013 407.707 -39.4611 1.18013 407.707
1156 1 -49.0598 3.37766 417.971 -49.0598 3.37766 417.971
867 1 -49.704 2.6438 415.606 -49.704 2.6438 415.606
1159 1 -46.6707 4.11448 418.471 -46.6707 4.11448 418.471
1168 1 -41.0201 3.37556 418.536 -41.0201 3.37556 418.536
1170 1 -40.1475 1.16323 417.603 -40.1475 1.16323 417.603
594 1 -40.3334 3.39216 408.642 -40.3334 3.39216 408.642
37 1 -39.8771 1.93029 402.076 -39.8771 1.93029 402.076
851 1 -58.613 0.427329 415.973 -58.613 0.427329 415.973
857 1 -55.3537 3.38116 415.539 -55.3537 3.38116 415.539
592 1 -41.2057 1.17688 409.575 -41.2057 1.17688 409.575
849 1 -59.4846 2.63893 416.907 -59.4846 2.63893 416.907
877 1 -44.0527 1.90483 415.672 -44.0527 1.90483 415.672
1143 1 -57.0969 3.37695 417.406 -57.0969 3.37695 417.406
1140 1 -58.8401 3.37282 419.274 -58.8401 3.37282 419.274
845 1 -61.8722 1.90091 416.408 -61.8722 1.90091 416.408
875 1 -44.9255 4.11723 416.605 -44.9255 4.11723 416.605
886 1 -39.0462 0.432224 413.372 -39.0462 0.432224 413.372
891 1 -35.7855 3.38451 412.937 -35.7855 3.38451 412.937
39 1 -38.3657 0.444201 403.467 -38.3657 0.444201 403.467
1177 1 -36.2426 0.421743 419.534 -36.2426 0.421743 419.534
1167 1 -41.8926 1.16045 419.469 -41.8926 1.16045 419.469
8 1 -59.1786 3.39137 401.408 -59.1786 3.39137 401.408
869 1 -48.1873 1.16545 417.039 -48.1873 1.16545 417.039
1136 1 -61.2278 2.63488 418.775 -61.2278 2.63488 418.775
1162 1 -45.1541 2.63606 419.903 -45.1541 2.63606 419.903
15 1 -54.4244 0.448061 402.379 -54.4244 0.448061 402.379
280 1 -56.1738 0.441317 404.219 -56.1738 0.441317 404.219
277 1 -57.9314 0.449842 406.075 -57.9314 0.449842 406.075
273 1 -59.6776 0.44569 407.936 -59.6776 0.44569 407.936
560 1 -61.4184 0.438437 409.805 -61.4184 0.438437 409.805
557 1 -63.1607 0.433138 411.674 -63.1607 0.433138 411.674
26 1 -46.3923 0.453203 402.909 -46.3923 0.453203 402.909
294 1 -48.1413 0.451247 404.783 -48.1413 0.451247 404.783
291 1 -49.8873 0.442939 406.646 -49.8873 0.442939 406.646
576 1 -51.6331 0.438906 408.511 -51.6331 0.438906 408.511
573 1 -53.3808 0.437836 410.374 -53.3808 0.437836 410.374
570 1 -55.1266 0.435653 412.239 -55.1266 0.435653 412.239
854 1 -56.8701 0.431706 414.105 -56.8701 0.431706 414.105
305 1 -41.8489 0.443374 407.21 -41.8489 0.443374 407.21
589 1 -43.5943 0.440157 409.077 -43.5943 0.440157 409.077
586 1 -45.3397 0.436924 410.943 -45.3397 0.436924 410.943
872 1 -47.0854 0.434032 412.809 -47.0854 0.434032 412.809
599 1 -37.3014 0.435426 411.505 -37.3014 0.435426 411.505
1132 1 -63.6156 1.89705 418.277 -63.6156 1.89705 418.277
4 1 -60.9752 3.42003 403.192 -60.9752 3.42003 403.192
268 1 -62.7089 3.39926 405.06 -62.7089 3.39926 405.06
1152 1 -51.4487 2.64057 417.472 -51.4487 2.64057 417.472
19 1 -51.1786 3.38653 401.91 -51.1786 3.38653 401.91
286 1 -52.9139 3.38734 403.768 -52.9139 3.38734 403.768
282 1 -54.6597 3.39129 405.643 -54.6597 3.39129 405.643
279 1 -56.413 3.39486 407.506 -56.413 3.39486 407.506
565 1 -58.16 3.39332 409.37 -58.16 3.39332 409.37
563 1 -59.9024 3.38796 411.238 -59.9024 3.38796 411.238
846 1 -61.6449 3.38294 413.107 -61.6449 3.38294 413.107
32 1 -43.1333 3.39927 402.498 -43.1333 3.39927 402.498
300 1 -44.8809 3.40162 404.355 -44.8809 3.40162 404.355
297 1 -46.6275 3.39769 406.215 -46.6275 3.39769 406.215
293 1 -48.3719 3.39355 408.08 -48.3719 3.39355 408.08
578 1 -50.1176 3.38986 409.945 -50.1176 3.38986 409.945
575 1 -51.8644 3.38765 411.808 -51.8644 3.38765 411.808
860 1 -53.6099 3.38497 413.673 -53.6099 3.38497 413.673
591 1 -42.0784 3.38894 410.508 -42.0784 3.38894 410.508
588 1 -43.8235 3.38596 412.375 -43.8235 3.38596 412.375
874 1 -45.5691 3.38318 414.24 -45.5691 3.38318 414.24
10 1 -57.682 1.90656 402.796 -57.682 1.90656 402.796
274 1 -59.453 1.93235 404.634 -59.453 1.93235 404.634
271 1 -61.1946 1.92411 406.499 -61.1946 1.92411 406.499
558 1 -62.9337 1.91548 408.371 -62.9337 1.91548 408.371
24 1 -47.9268 1.92161 401.504 -47.9268 1.92161 401.504
21 1 -49.6633 1.92593 403.346 -49.6633 1.92593 403.346
288 1 -51.4004 1.91908 405.216 -51.4004 1.91908 405.216
285 1 -53.1472 1.9156 407.081 -53.1472 1.9156 407.081
571 1 -54.8971 1.91594 408.941 -54.8971 1.91594 408.941
568 1 -56.6433 1.91422 410.805 -56.6433 1.91422 410.805
852 1 -58.3864 1.90981 412.672 -58.3864 1.90981 412.672
848 1 -60.1291 1.90516 414.54 -60.1291 1.90516 414.54
306 1 -41.6236 1.92386 403.911 -41.6236 1.92386 403.911
302 1 -43.3657 1.92101 405.776 -43.3657 1.92101 405.776
299 1 -45.1105 1.91875 407.644 -45.1105 1.91875 407.644
583 1 -46.8557 1.91536 409.511 -46.8557 1.91536 409.511
581 1 -48.6016 1.91212 411.377 -48.6016 1.91212 411.377
866 1 -50.3479 1.90963 413.241 -50.3479 1.90963 413.241
880 1 -42.3074 1.90761 413.806 -42.3074 1.90761 413.806
312 1 -37.7178 1.18312 405.838 -37.7178 1.18312 405.838
2 1 -62.5047 0.470812 401.757 -62.5047 0.470812 401.757
13 1 -55.2923 2.65585 403.273 -55.2923 2.65585 403.273
278 1 -57.0505 2.65889 405.143 -57.0505 2.65889 405.143
275 1 -58.8055 2.6625 407.001 -58.8055 2.6625 407.001
562 1 -60.5476 2.65558 408.869 -60.5476 2.65558 408.869
559 1 -62.2893 2.6493 410.74 -62.2893 2.6493 410.74
1166 1 -42.7651 3.37279 420.402 -42.7651 3.37279 420.402
889 1 -36.6577 1.16919 413.87 -36.6577 1.16919 413.87
28 1 -45.5234 2.66848 402.017 -45.5234 2.66848 402.017
296 1 -47.2728 2.66421 403.85 -47.2728 2.66421 403.85
292 1 -49.0155 2.66077 405.713 -49.0155 2.66077 405.713
289 1 -50.7593 2.65475 407.58 -50.7593 2.65475 407.58
574 1 -52.5068 2.6523 409.444 -52.5068 2.6523 409.444
572 1 -54.2541 2.65083 411.307 -54.2541 2.65083 411.307
856 1 -55.9985 2.64757 413.172 -55.9985 2.64757 413.172
303 1 -42.7221 2.65507 408.143 -42.7221 2.65507 408.143
587 1 -44.4671 2.65216 410.01 -44.4671 2.65216 410.01
584 1 -46.2125 2.64914 411.876 -46.2125 2.64914 411.876
870 1 -47.9584 2.64645 413.741 -47.9584 2.64645 413.741
6 1 -60.0859 1.19957 402.277 -60.0859 1.19957 402.277
270 1 -61.8426 1.19517 404.12 -61.8426 1.19517 404.12
267 1 -63.5768 1.18141 406 -63.5768 1.18141 406
890 1 -36.014 1.90304 416.235 -36.014 1.90304 416.235
18 1 -52.0362 1.17649 402.858 -52.0362 1.17649 402.858
284 1 -53.7841 1.17916 404.72 -53.7841 1.17916 404.72
281 1 -55.5372 1.17975 406.578 -55.5372 1.17975 406.578
567 1 -57.2878 1.18152 408.438 -57.2878 1.18152 408.438
564 1 -59.0315 1.17705 410.304 -59.0315 1.17705 410.304
561 1 -60.7736 1.17162 412.173 -60.7736 1.17162 412.173
844 1 -62.5164 1.167 414.042 -62.5164 1.167 414.042
33 1 -42.2817 1.18394 401.559 -42.2817 1.18394 401.559
30 1 -44.0128 1.18215 403.407 -44.0128 1.18215 403.407
298 1 -45.7543 1.18566 405.278 -45.7543 1.18566 405.278
295 1 -47.4992 1.18224 407.147 -47.4992 1.18224 407.147
580 1 -49.2446 1.17756 409.012 -49.2446 1.17756 409.012
577 1 -50.9911 1.17482 410.876 -50.9911 1.17482 410.876
862 1 -52.7375 1.17269 412.74 -52.7375 1.17269 412.74
590 1 -42.9508 1.17377 411.442 -42.9508 1.17377 411.442
876 1 -44.6962 1.17082 413.308 -44.6962 1.17082 413.308
1163 1 -44.2816 0.423744 418.97 -44.2816 0.423744 418.97
1153 1 -50.804 3.37424 419.838 -50.804 3.37424 419.838
311 1 -38.5885 3.39623 406.775 -38.5885 3.39623 406.775
42 1 -36.634 0.445167 401.62 -36.634 0.445167 401.62
1135 1 -62.0995 0.419225 419.709 -62.0995 0.419225 419.709
1171 1 -39.5037 1.89721 419.968 -39.5037 1.89721 419.968
1139 1 -59.7117 1.1571 420.208 -59.7117 1.1571 420.208
601 1 -36.4293 2.65077 410.571 -36.4293 2.65077 410.571
313 1 -36.8424 3.40064 404.907 -36.8424 3.40064 404.907
858 1 -54.482 1.16942 414.606 -54.482 1.16942 414.606
868 1 -48.8313 0.431456 414.674 -48.8313 0.431456 414.674
1147 1 -54.709 4.11484 417.906 -54.709 4.11484 417.906
843 1 -63.3881 3.37868 414.976 -63.3881 3.37868 414.976
593 1 -40.5622 1.91058 411.94 -40.5622 1.91058 411.94
308 1 -40.1052 0.446823 405.34 -40.1052 0.446823 405.34
861 1 -52.9654 4.11878 416.039 -52.9654 4.11878 416.039
1158 1 -47.5431 1.89926 419.404 -47.5431 1.89926 419.404
884 1 -39.9186 2.64444 414.305 -39.9186 2.64444 414.305
881 1 -41.6638 2.64157 416.171 -41.6638 2.64157 416.171
885 1 -39.275 3.37838 416.67 -39.275 3.37838 416.67
859 1 -53.8372 1.90312 416.972 -53.8372 1.90312 416.972
596 1 -38.8175 1.9137 410.073 -38.8175 1.9137 410.073
879 1 -42.5364 0.42647 417.104 -42.5364 0.42647 417.104
1172 1 -38.6313 4.11235 419.035 -38.6313 4.11235 419.035
1154 1 -49.932 1.16228 418.905 -49.932 1.16228 418.905
887 1 -38.4025 1.16612 415.737 -38.4025 1.16612 415.737
597 1 -38.1738 2.64749 412.438 -38.1738 2.64749 412.438
1161 1 -45.7981 1.90216 417.538 -45.7981 1.90216 417.538
1138 1 -60.3562 0.423144 417.841 -60.3562 0.423144 417.841
1149 1 -53.1925 2.6368 419.338 -53.1925 2.6368 419.338
41 1 -37.4861 2.66091 402.559 -37.4861 2.66091 402.559
888 1 -37.5301 3.38135 414.803 -37.5301 3.38135 414.803
1165 1 -43.409 2.63884 418.037 -43.409 2.63884 418.037
1141 1 -57.9685 1.16113 418.34 -57.9685 1.16113 418.34
1145 1 -55.5806 1.89906 418.839 -55.5806 1.89906 418.839
600 1 -37.0735 1.91699 408.205 -37.0735 1.91699 408.205
1148 1 -54.0642 0.421092 420.272 -54.0642 0.421092 420.272
882 1 -41.4348 4.12278 412.873 -41.4348 4.12278 412.873
1157 1 -48.4153 4.11138 420.337 -48.4153 4.11138 420.337
1144 1 -56.4523 4.11074 419.773 -56.4523 4.11074 419.773
602 1 -35.557 0.438891 409.637 -35.557 0.438891 409.637
1131 1 -63.843 0.415527 421.577 -63.843 0.415527 421.577
1755 1 -36.0554 2.62066 428.496 -36.0554 2.62066 428.496
1460 1 -40.6046 2.62828 424.2 -40.6046 2.62828 424.2
2308 1 -50.424 3.34192 437.767 -50.424 3.34192 437.767
2316 1 -45.4202 1.87069 435.465 -45.4202 1.87069 435.465
2312 1 -48.0359 4.07921 438.266 -48.0359 4.07921 438.266
1464 1 -38.2158 3.36509 424.699 -38.2158 3.36509 424.699
1461 1 -39.7322 0.416005 423.267 -39.7322 0.416005 423.267
2039 1 -38.8996 3.34827 434.595 -38.8996 3.34827 434.595
2613 1 -40.8712 1.86336 439.762 -40.8712 1.86336 439.762
1467 1 -35.8272 4.10193 425.198 -35.8272 4.10193 425.198
2603 1 -46.5195 2.60098 439.698 -46.5195 2.60098 439.698
1443 1 -50.1594 4.10788 422.204 -50.1594 4.10788 422.204
1748 1 -39.9604 3.36213 426.565 -39.9604 3.36213 426.565
2023 1 -47.8085 1.13347 434.966 -47.8085 1.13347 434.966
2310 1 -48.9077 1.86373 439.199 -48.9077 1.86373 439.199
1151 1 -51.6759 1.15866 420.771 -51.6759 1.15866 420.771
2303 1 -53.6839 0.38906 438.202 -53.6839 0.38906 438.202
2299 1 -56.072 4.07907 437.704 -56.072 4.07907 437.704
2033 1 -42.16 0.395819 435.03 -42.16 0.395819 435.03
1433 1 -55.8076 0.417112 422.139 -55.8076 0.417112 422.139
1430 1 -57.551 0.413205 424.006 -57.551 0.413205 424.006
1426 1 -59.2945 0.409403 425.874 -59.2945 0.409403 425.874
1713 1 -61.038 0.405702 427.741 -61.038 0.405702 427.741
1710 1 -62.7816 0.402084 429.609 -62.7816 0.402084 429.609
2330 1 -36.7389 2.60383 438.393 -36.7389 2.60383 438.393
1160 1 -46.0264 0.420838 420.836 -46.0264 0.420838 420.836
1447 1 -47.7708 0.417603 422.703 -47.7708 0.417603 422.703
1444 1 -49.5147 0.414087 424.569 -49.5147 0.414087 424.569
1730 1 -51.2585 0.410422 426.437 -51.2585 0.410422 426.437
1727 1 -53.0021 0.406711 428.304 -53.0021 0.406711 428.304
1724 1 -54.7457 0.403009 430.171 -54.7457 0.403009 430.171
2008 1 -56.4892 0.399336 432.038 -56.4892 0.399336 432.038
2006 1 -58.2328 0.395697 433.906 -58.2328 0.395697 433.906
1458 1 -41.4768 0.413058 425.133 -41.4768 0.413058 425.133
1743 1 -43.2212 0.409941 427 -43.2212 0.409941 427
1740 1 -44.9653 0.406647 428.866 -44.9653 0.406647 428.866
2026 1 -46.7092 0.40322 430.733 -46.7092 0.40322 430.733
2022 1 -48.453 0.399714 432.601 -48.453 0.399714 432.601
2019 1 -50.1967 0.39617 434.468 -50.1967 0.39617 434.468
2309 1 -49.5522 1.12995 436.834 -49.5522 1.12995 436.834
1137 1 -60.5834 3.36888 421.141 -60.5834 3.36888 421.141
1421 1 -62.3269 3.36512 423.009 -62.3269 3.36512 423.009
1439 1 -52.5478 3.37047 421.705 -52.5478 3.37047 421.705
1435 1 -54.2913 3.3666 423.572 -54.2913 3.3666 423.572
1432 1 -56.0348 3.36274 425.439 -56.0348 3.36274 425.439
1719 1 -57.7783 3.35896 427.306 -57.7783 3.35896 427.306
1716 1 -59.5218 3.35525 429.174 -59.5218 3.35525 429.174
2001 1 -61.2653 3.3516 431.041 -61.2653 3.3516 431.041
1998 1 -63.0089 3.34801 432.909 -63.0089 3.34801 432.909
2323 1 -40.6436 3.34499 436.462 -40.6436 3.34499 436.462
1453 1 -44.5099 3.36987 422.269 -44.5099 3.36987 422.269
1450 1 -46.2542 3.36669 424.135 -46.2542 3.36669 424.135
1446 1 -47.9982 3.36327 426.002 -47.9982 3.36327 426.002
1732 1 -49.742 3.3597 427.869 -49.742 3.3597 427.869
1729 1 -51.4857 3.35606 429.736 -51.4857 3.35606 429.736
2014 1 -53.2293 3.35241 431.603 -53.2293 3.35241 431.603
2011 1 -54.9729 3.34877 433.471 -54.9729 3.34877 433.471
1745 1 -41.7047 3.35903 428.432 -41.7047 3.35903 428.432
1742 1 -43.4488 3.35577 430.299 -43.4488 3.35577 430.299
2028 1 -45.1928 3.3524 432.166 -45.1928 3.3524 432.166
2025 1 -46.9366 3.34894 434.033 -46.9366 3.34894 434.033
1427 1 -59.0673 1.89106 422.574 -59.0673 1.89106 422.574
1424 1 -60.8107 1.88727 424.442 -60.8107 1.88727 424.442
1711 1 -62.5543 1.8836 426.309 -62.5543 1.8836 426.309
2322 1 -41.5156 1.12958 437.396 -41.5156 1.12958 437.396
1750 1 -38.444 1.88376 427.998 -38.444 1.88376 427.998
1155 1 -49.2874 1.89595 421.27 -49.2874 1.89595 421.27
1441 1 -51.0313 1.89231 423.137 -51.0313 1.89231 423.137
1438 1 -52.7749 1.88854 425.004 -52.7749 1.88854 425.004
1725 1 -54.5184 1.88476 426.871 -54.5184 1.88476 426.871
1722 1 -56.262 1.88101 428.739 -56.262 1.88101 428.739
1718 1 -58.0055 1.87731 430.606 -58.0055 1.87731 430.606
2003 1 -59.7491 1.87366 432.473 -59.7491 1.87366 432.473
2000 1 -61.4926 1.87005 434.341 -61.4926 1.87005 434.341
1459 1 -41.2486 1.89439 421.835 -41.2486 1.89439 421.835
1455 1 -42.9933 1.89146 423.701 -42.9933 1.89146 423.701
1452 1 -44.7377 1.88832 425.567 -44.7377 1.88832 425.567
1737 1 -46.4818 1.88497 427.434 -46.4818 1.88497 427.434
1735 1 -48.2256 1.88147 429.301 -48.2256 1.88147 429.301
2020 1 -49.9693 1.87791 431.168 -49.9693 1.87791 431.168
2017 1 -51.713 1.87431 433.036 -51.713 1.87431 433.036
2034 1 -41.9324 1.87745 431.731 -41.9324 1.87745 431.731
2031 1 -43.6764 1.87411 433.598 -43.6764 1.87411 433.598
2029 1 -44.5483 4.08614 434.531 -44.5483 4.08614 434.531
1146 1 -54.9359 2.63282 421.205 -54.9359 2.63282 421.205
1431 1 -56.6793 2.62887 423.073 -56.6793 2.62887 423.073
1428 1 -58.4228 2.62502 424.94 -58.4228 2.62502 424.94
1715 1 -60.1663 2.62127 426.808 -60.1663 2.62127 426.808
1712 1 -61.9098 2.61761 428.675 -61.9098 2.61761 428.675
1708 1 -63.6534 2.61403 430.543 -63.6534 2.61403 430.543
1747 1 -40.1883 1.88067 429.864 -40.1883 1.88067 429.864
1449 1 -46.8987 2.63299 421.769 -46.8987 2.63299 421.769
1445 1 -48.6428 2.6296 423.636 -48.6428 2.6296 423.636
1442 1 -50.3866 2.62599 425.503 -50.3866 2.62599 425.503
1728 1 -52.1303 2.62229 427.37 -52.1303 2.62229 427.37
1726 1 -53.8739 2.61858 429.237 -53.8739 2.61858 429.237
2010 1 -55.6174 2.61489 431.105 -55.6174 2.61489 431.105
2007 1 -57.361 2.61124 432.972 -57.361 2.61124 432.972
1456 1 -42.3491 2.62525 426.066 -42.3491 2.62525 426.066
1741 1 -44.0933 2.62204 427.933 -44.0933 2.62204 427.933
1738 1 -45.8373 2.61867 429.8 -45.8373 2.61867 429.8
2024 1 -47.5811 2.6152 431.667 -47.5811 2.6152 431.667
2021 1 -49.3248 2.61167 433.534 -49.3248 2.61167 433.534
2035 1 -41.288 2.61121 434.097 -41.288 2.61121 434.097
1754 1 -36.6995 1.88674 426.131 -36.6995 1.88674 426.131
1423 1 -61.4552 1.15325 422.075 -61.4552 1.15325 422.075
1420 1 -63.1987 1.14957 423.943 -63.1987 1.14957 423.943
2044 1 -35.6391 1.87318 434.161 -35.6391 1.87318 434.161
1437 1 -53.4195 1.15481 422.638 -53.4195 1.15481 422.638
1434 1 -55.163 1.15093 424.505 -55.163 1.15093 424.505
1721 1 -56.9065 1.14711 426.373 -56.9065 1.14711 426.373
1717 1 -58.65 1.14336 428.24 -58.65 1.14336 428.24
1714 1 -60.3936 1.13969 430.107 -60.3936 1.13969 430.107
1999 1 -62.1371 1.13608 431.975 -62.1371 1.13608 431.975
1997 1 -63.8807 1.13251 433.842 -63.8807 1.13251 433.842
1164 1 -43.6375 1.15763 421.336 -43.6375 1.15763 421.336
1451 1 -45.3821 1.15459 423.202 -45.3821 1.15459 423.202
1448 1 -47.1263 1.15128 425.068 -47.1263 1.15128 425.068
1734 1 -48.8702 1.14777 426.935 -48.8702 1.14777 426.935
1731 1 -50.6139 1.14416 428.802 -50.6139 1.14416 428.802
2016 1 -52.3575 1.14051 430.67 -52.3575 1.14051 430.67
2012 1 -54.1011 1.13686 432.537 -54.1011 1.13686 432.537
2009 1 -55.8447 1.13324 434.404 -55.8447 1.13324 434.404
1746 1 -40.8326 1.14687 427.499 -40.8326 1.14687 427.499
1744 1 -42.5768 1.14369 429.365 -42.5768 1.14369 429.365
2030 1 -44.3208 1.14037 431.232 -44.3208 1.14037 431.232
2027 1 -46.0647 1.13695 433.099 -46.0647 1.13695 433.099
2325 1 -39.7716 1.13291 435.529 -39.7716 1.13291 435.529
1749 1 -39.3161 4.09596 428.931 -39.3161 4.09596 428.931
1425 1 -59.939 4.10287 423.508 -59.939 4.10287 423.508
1736 1 -47.3537 4.09696 428.368 -47.3537 4.09696 428.368
1142 1 -57.3239 1.895 420.707 -57.3239 1.895 420.707
1720 1 -57.1337 4.09288 429.672 -57.1337 4.09288 429.672
2005 1 -58.8773 4.08921 431.54 -58.8773 4.08921 431.54
2002 1 -60.6208 4.08558 433.407 -60.6208 4.08558 433.407
1169 1 -40.3762 4.10953 420.901 -40.3762 4.10953 420.901
1723 1 -55.3902 4.0966 427.805 -55.3902 4.0966 427.805
1440 1 -51.9031 4.10416 424.071 -51.9031 4.10416 424.071
1733 1 -49.0975 4.09342 430.235 -49.0975 4.09342 430.235
2018 1 -50.8412 4.08984 432.102 -50.8412 4.08984 432.102
2015 1 -52.5848 4.08624 433.969 -52.5848 4.08624 433.969
2036 1 -41.0604 4.0928 430.798 -41.0604 4.0928 430.798
2032 1 -42.8044 4.08952 432.664 -42.8044 4.08952 432.664
2326 1 -39.1273 1.86671 437.895 -39.1273 1.86671 437.895
1752 1 -37.5717 4.09899 427.064 -37.5717 4.09899 427.064
1457 1 -42.121 4.10667 422.768 -42.121 4.10667 422.768
2043 1 -36.2834 1.1393 431.795 -36.2834 1.1393 431.795
2286 1 -63.2361 1.86647 436.208 -63.2361 1.86647 436.208
2319 1 -43.2594 1.12619 439.263 -43.2594 1.12619 439.263
1436 1 -53.6467 4.10038 425.938 -53.6467 4.10038 425.938
1422 1 -61.6825 4.09914 425.375 -61.6825 4.09914 425.375
1173 1 -37.9874 0.418862 421.4 -37.9874 0.418862 421.4
2293 1 -59.3318 1.12605 438.139 -59.3318 1.12605 438.139
2289 1 -61.7199 0.388502 437.64 -61.7199 0.388502 437.64
2295 1 -57.8156 4.07551 439.571 -57.8156 4.07551 439.571
1465 1 -37.3435 1.15281 423.766 -37.3435 1.15281 423.766
2315 1 -45.6477 0.388991 438.764 -45.6477 0.388991 438.764
2331 1 -36.5112 4.08532 435.094 -36.5112 4.08532 435.094
2297 1 -56.9438 1.86356 438.638 -56.9438 1.86356 438.638
2324 1 -39.9992 4.07877 438.828 -39.9992 4.07877 438.828
2306 1 -51.2958 1.12643 438.701 -51.2958 1.12643 438.701
2285 1 -63.4634 0.384921 439.508 -63.4634 0.384921 439.508
1462 1 -39.0881 1.1499 425.632 -39.0881 1.1499 425.632
1751 1 -37.7997 2.61762 430.363 -37.7997 2.61762 430.363
2329 1 -37.3832 1.86999 436.028 -37.3832 1.86999 436.028
2042 1 -37.1555 3.35147 432.729 -37.1555 3.35147 432.729
2041 1 -38.0276 1.13616 433.662 -38.0276 1.13616 433.662
2593 1 -52.1676 3.3384 439.635 -52.1676 3.3384 439.635
2328 1 -37.6109 0.388458 439.327 -37.6109 0.388458 439.327
2301 1 -54.5557 2.60101 439.136 -54.5557 2.60101 439.136
1466 1 -36.4711 3.36798 422.832 -36.4711 3.36798 422.832
2298 1 -56.7165 3.34516 435.338 -56.7165 3.34516 435.338
2321 1 -42.3875 3.34162 438.329 -42.3875 3.34162 438.329
2313 1 -47.164 1.86723 437.332 -47.164 1.86723 437.332
2294 1 -58.46 3.34156 437.205 -58.46 3.34156 437.205
2304 1 -52.8121 2.60456 437.269 -52.8121 2.60456 437.269
2300 1 -55.2002 1.86713 436.77 -55.2002 1.86713 436.77
2290 1 -60.8481 2.60402 436.707 -60.8481 2.60402 436.707
2318 1 -43.9039 0.392433 436.897 -43.9039 0.392433 436.897
2327 1 -38.2553 4.08209 436.961 -38.2553 4.08209 436.961
2004 1 -59.1046 2.60762 434.839 -59.1046 2.60762 434.839
2013 1 -53.4566 1.87072 434.903 -53.4566 1.87072 434.903
2288 1 -62.3644 4.08199 435.274 -62.3644 4.08199 435.274
2037 1 -40.416 0.399126 433.163 -40.416 0.399126 433.163
1739 1 -45.6098 4.10039 426.501 -45.6098 4.10039 426.501
1753 1 -36.9276 0.405424 429.43 -36.9276 0.405424 429.43
2307 1 -51.0685 2.60812 435.401 -51.0685 2.60812 435.401
2314 1 -46.2921 4.08269 436.399 -46.2921 4.08269 436.399
2040 1 -38.6719 0.402331 431.296 -38.6719 0.402331 431.296
2320 1 -43.032 2.60786 435.964 -43.032 2.60786 435.964
2292 1 -59.9763 0.39209 435.773 -59.9763 0.39209 435.773
2311 1 -48.6803 3.34544 435.9 -48.6803 3.34544 435.9
2302 1 -54.3284 4.08265 435.836 -54.3284 4.08265 435.836
2296 1 -57.5883 1.12963 436.272 -57.5883 1.12963 436.272
1463 1 -38.8598 2.63116 422.334 -38.8598 2.63116 422.334
2287 1 -62.5916 2.60044 438.574 -62.5916 2.60044 438.574
2291 1 -60.2036 3.33798 439.073 -60.2036 3.33798 439.073
2317 1 -44.7758 2.60444 437.831 -44.7758 2.60444 437.831
2038 1 -39.544 2.61447 432.23 -39.544 2.61447 432.23
2305 1 -51.9403 0.392613 436.335 -51.9403 0.392613 436.335
2332 1 -35.8669 0.391727 437.46 -35.8669 0.391727 437.46
1709 1 -63.4261 4.09553 427.243 -63.4261 4.09553 427.243
1468 1 -35.5987 1.1557 421.899 -35.5987 1.1557 421.899
1454 1 -43.8656 4.10364 424.634 -43.8656 4.10364 424.634
1429 1 -58.1956 4.10674 421.64 -58.1956 4.10674 421.64
1133 1 -62.9713 2.63108 420.643 -62.9713 2.63108 420.643
1175 1 -37.115 2.63402 420.467 -37.115 2.63402 420.467
2616 1 -38.7104 1.11892 443.559 -38.7104 1.11892 443.559
2901 1 -40.4542 1.11549 445.427 -40.4542 1.11549 445.427
2907 1 -37.1941 4.06818 444.992 -37.1941 4.06818 444.992
3194 1 -38.2934 0.371101 449.224 -38.2934 0.371101 449.224
2587 1 -55.4275 0.38552 440.07 -55.4275 0.38552 440.07
2597 1 -49.7795 4.07571 440.133 -49.7795 4.07571 440.133
2584 1 -57.1711 0.381993 441.937 -57.1711 0.381993 441.937
2581 1 -58.9146 0.378471 443.805 -58.9146 0.378471 443.805
2868 1 -60.6581 0.374934 445.672 -60.6581 0.374934 445.672
2865 1 -62.4015 0.371355 447.539 -62.4015 0.371355 447.539
2601 1 -47.3914 0.385515 440.632 -47.3914 0.385515 440.632
2598 1 -49.1351 0.382026 442.499 -49.1351 0.382026 442.499
2885 1 -50.8787 0.378545 444.366 -50.8787 0.378545 444.366
2882 1 -52.6223 0.37509 446.234 -52.6223 0.37509 446.234
2879 1 -54.366 0.371667 448.101 -54.366 0.371667 448.101
2612 1 -41.0987 0.381706 443.061 -41.0987 0.381706 443.061
2898 1 -42.8424 0.378246 444.928 -42.8424 0.378246 444.928
2895 1 -44.586 0.374756 446.795 -44.586 0.374756 446.795
3180 1 -46.3296 0.371264 448.663 -46.3296 0.371264 448.663
2576 1 -61.9471 3.33441 440.94 -61.9471 3.33441 440.94
2574 1 -63.6906 3.33081 442.807 -63.6906 3.33081 442.807
2589 1 -53.9113 3.33488 441.502 -53.9113 3.33488 441.502
2586 1 -55.6548 3.33139 443.369 -55.6548 3.33139 443.369
2874 1 -57.3984 3.32791 445.237 -57.3984 3.32791 445.237
2871 1 -59.1419 3.32443 447.104 -59.1419 3.32443 447.104
3155 1 -60.8854 3.32092 448.972 -60.8854 3.32092 448.972
2607 1 -44.1313 3.33819 440.197 -44.1313 3.33819 440.197
2604 1 -45.8751 3.33473 442.064 -45.8751 3.33473 442.064
2600 1 -47.6187 3.33124 443.931 -47.6187 3.33124 443.931
2887 1 -49.3624 3.32776 445.798 -49.3624 3.32776 445.798
2884 1 -51.106 3.32431 447.666 -51.106 3.32431 447.666
3168 1 -52.8497 3.32088 449.533 -52.8497 3.32088 449.533
2900 1 -41.326 3.32748 446.36 -41.326 3.32748 446.36
2897 1 -43.0697 3.32398 448.227 -43.0697 3.32398 448.227
2582 1 -58.6873 1.86 440.505 -58.6873 1.86 440.505
2579 1 -60.4308 1.85645 442.372 -60.4308 1.85645 442.372
2866 1 -62.1743 1.85287 444.24 -62.1743 1.85287 444.24
2578 1 -61.0753 1.12247 440.006 -61.0753 1.12247 440.006
2595 1 -50.6514 1.86023 441.067 -50.6514 1.86023 441.067
2592 1 -52.395 1.85674 442.934 -52.395 1.85674 442.934
2880 1 -54.1386 1.85327 444.802 -54.1386 1.85327 444.802
2877 1 -55.8822 1.84983 446.669 -55.8822 1.84983 446.669
2873 1 -57.6258 1.8464 448.537 -57.6258 1.8464 448.537
2609 1 -42.615 1.85995 441.629 -42.615 1.85995 441.629
2606 1 -44.3587 1.85648 443.496 -44.3587 1.85648 443.496
2892 1 -46.1024 1.853 445.363 -46.1024 1.853 445.363
2890 1 -47.846 1.84951 447.231 -47.846 1.84951 447.231
3174 1 -49.5897 1.84605 449.098 -49.5897 1.84605 449.098
2618 1 -37.8385 3.33434 442.626 -37.8385 3.33434 442.626
2585 1 -56.2993 2.59748 441.003 -56.2993 2.59748 441.003
2583 1 -58.0428 2.59396 442.871 -58.0428 2.59396 442.871
2870 1 -59.7864 2.59043 444.738 -59.7864 2.59043 444.738
2867 1 -61.5298 2.58688 446.606 -61.5298 2.58688 446.606
2863 1 -63.2732 2.58327 448.473 -63.2732 2.58327 448.473
2599 1 -48.2632 2.5975 441.565 -48.2632 2.5975 441.565
2596 1 -50.0069 2.59401 443.433 -50.0069 2.59401 443.433
2883 1 -51.7505 2.59054 445.3 -51.7505 2.59054 445.3
2881 1 -53.4942 2.5871 447.167 -53.4942 2.5871 447.167
3164 1 -55.2378 2.58369 449.035 -55.2378 2.58369 449.035
2610 1 -41.9705 2.59371 443.994 -41.9705 2.59371 443.994
2896 1 -43.7142 2.59023 445.862 -43.7142 2.59023 445.862
2893 1 -45.4578 2.58673 447.729 -45.4578 2.58673 447.729
3178 1 -47.2015 2.58326 449.596 -47.2015 2.58326 449.596
2575 1 -62.8188 1.11889 441.874 -62.8188 1.11889 441.874
2591 1 -53.0395 1.12291 440.568 -53.0395 1.12291 440.568
2588 1 -54.7831 1.11941 442.436 -54.7831 1.11941 442.436
2876 1 -56.5266 1.11592 444.303 -56.5266 1.11592 444.303
2872 1 -58.2702 1.11245 446.171 -58.2702 1.11245 446.171
2869 1 -60.0137 1.10895 448.038 -60.0137 1.10895 448.038
2605 1 -45.0032 1.12274 441.13 -45.0032 1.12274 441.13
2602 1 -46.7469 1.11926 442.997 -46.7469 1.11926 442.997
2889 1 -48.4906 1.11577 444.865 -48.4906 1.11577 444.865
2886 1 -50.2342 1.1123 446.732 -50.2342 1.1123 446.732
3170 1 -51.9779 1.10886 448.6 -51.9779 1.10886 448.6
2899 1 -42.1979 1.11201 447.294 -42.1979 1.11201 447.294
3184 1 -43.9414 1.10851 449.161 -43.9414 1.10851 449.161
2580 1 -59.5591 4.07195 441.439 -59.5591 4.07195 441.439
2577 1 -61.3026 4.06839 443.306 -61.3026 4.06839 443.306
2864 1 -63.046 4.06479 445.173 -63.046 4.06479 445.173
2862 1 -63.9177 1.84925 446.107 -63.9177 1.84925 446.107
2594 1 -51.5232 4.07221 442.001 -51.5232 4.07221 442.001
2590 1 -53.2668 4.06873 443.868 -53.2668 4.06873 443.868
2878 1 -55.0104 4.06528 445.735 -55.0104 4.06528 445.735
2875 1 -56.754 4.06184 447.603 -56.754 4.06184 447.603
3159 1 -58.4976 4.05841 449.47 -58.4976 4.05841 449.47
2611 1 -41.7431 4.07539 440.695 -41.7431 4.07539 440.695
2608 1 -43.4869 4.07195 442.562 -43.4869 4.07195 442.562
2894 1 -45.2306 4.06847 444.43 -45.2306 4.06847 444.43
2891 1 -46.9742 4.06498 446.297 -46.9742 4.06498 446.297
2888 1 -48.7179 4.0615 448.164 -48.7179 4.0615 448.164
2904 1 -38.9379 4.06474 446.859 -38.9379 4.06474 446.859
2621 1 -36.0946 3.33768 440.759 -36.0946 3.33768 440.759
2617 1 -38.4829 2.60052 440.26 -38.4829 2.60052 440.26
2614 1 -40.2268 2.59714 442.127 -40.2268 2.59714 442.127
2908 1 -36.5497 0.374575 447.357 -36.5497 0.374575 447.357
2619 1 -36.9666 1.12229 441.692 -36.9666 1.12229 441.692
2906 1 -37.4216 2.58657 448.291 -37.4216 2.58657 448.291
2905 1 -38.066 1.85274 445.925 -38.066 1.85274 445.925
2620 1 -36.3222 1.85615 444.058 -36.3222 1.85615 444.058
3190 1 -40.6815 4.06126 448.726 -40.6815 4.06126 448.726
2902 1 -39.8097 1.84928 447.792 -39.8097 1.84928 447.792
2903 1 -39.5823 3.33094 444.493 -39.5823 3.33094 444.493
2615 1 -39.3548 0.385114 441.194 -39.3548 0.385114 441.194
2909 1 -35.6778 2.59001 446.424 -35.6778 2.59001 446.424
14 1 -55.0768 4.17287 400.106 -55.0768 4.17287 400.106
7 1 -59.794 2.66602 399.195 -59.794 2.66602 399.195
25 1 -47.0403 4.16269 400.579 -47.0403 4.16269 400.579
38 1 -38.9989 4.12216 401.095 -38.9989 4.12216 401.095
23 1 -48.7869 4.14357 402.441 -48.7869 4.14357 402.441
287 1 -52.2741 4.12868 406.144 -52.2741 4.12868 406.144
878 1 -43.18 4.11991 414.739 -43.18 4.11991 414.739
579 1 -49.4748 4.12462 412.309 -49.4748 4.12462 412.309
585 1 -45.9831 4.13086 408.579 -45.9831 4.13086 408.579
290 1 -50.5328 4.13271 404.278 -50.5328 4.13271 404.278
11 1 -56.8152 4.12407 401.874 -56.8152 4.12407 401.874
595 1 -39.6898 4.12585 411.007 -39.6898 4.12585 411.007
1134 1 -62.7438 4.11266 417.342 -62.7438 4.11266 417.342
283 1 -54.0222 4.12897 408.009 -54.0222 4.12897 408.009
582 1 -47.7286 4.12738 410.444 -47.7286 4.12738 410.444
276 1 -58.5718 4.14067 403.724 -58.5718 4.14067 403.724
569 1 -55.7707 4.12917 409.872 -55.7707 4.12917 409.872
847 1 -61.0006 4.1167 415.474 -61.0006 4.1167 415.474
556 1 -63.8048 4.12658 409.307 -63.8048 4.12658 409.307
272 1 -60.327 4.14367 405.566 -60.327 4.14367 405.566
3 1 -61.6178 2.68117 400.874 -61.6178 2.68117 400.874
35 1 -40.7447 4.14241 402.967 -40.7447 4.14241 402.967
598 1 -37.9452 4.12927 409.14 -37.9452 4.12927 409.14
850 1 -59.2576 4.12116 413.606 -59.2576 4.12116 413.606