ITEM: TIMESTEP
0
ITEM: NUMBER OF ATOMS
4630
ITEM: BOX BOUNDS xy xz yz pp pp pp
-6.2259592414920355e+01 1.0527862426312035e+02 0.0000000000000000e+00
0.0000000000000000e+00 4.4274527100805940e+00 0.0000000000000000e+00
3.8000000000000000e+02 5.0000000000000000e+02 0.0000000000000000e+00
ITEM: ATOMS id type x y z xu yu zu
7 1 -58.1353 3.03828 398.684 -58.1353 3.03828 398.684
27 1 -44.8322 2.32526 399.211 -44.8322 2.32526 399.211
36 1 -39.2919 1.58192 399.266 -39.2919 1.58192 399.266
45 1 -33.7564 0.841238 399.327 -33.7564 0.841238 399.327
85 1 -8.44058 0.83912 399.155 -8.44058 0.83912 399.155
94 1 -2.90224 0.0961949 399.218 -2.90224 0.0961949 399.218
103 1 2.62971 3.78457 399.286 2.62971 3.78457 399.286
112 1 8.15893 3.04625 399.355 8.15893 3.04625 399.355
152 1 33.4355 3.0619 399.201 33.4355 3.0619 399.201
161 1 38.9657 2.3219 399.263 38.9657 2.3219 399.263
170 1 44.4904 1.58494 399.328 44.4904 1.58494 399.328
227 1 80.8082 0.118733 399.254 80.8082 0.118733 399.254
236 1 86.3421 3.80406 399.305 86.3421 3.80406 399.305
245 1 91.872 3.06516 399.361 91.872 3.06516 399.361
5 1 -59.0458 0.819976 399.482 -59.0458 0.819976 399.482
2 1 -60.785 0.831159 401.297 -60.785 0.831159 401.297
3 1 -59.9552 3.04411 400.376 -59.9552 3.04411 400.376
1 1 -61.6154 3.0085 402.253 105.923 3.0085 402.253
4 1 -59.2822 3.75033 402.732 -59.2822 3.75033 402.732
9 1 -56.6741 1.47556 399.941 -56.6741 1.47556 399.941
8 1 -57.5435 3.73493 400.91 -57.5435 3.73493 400.91
10 1 -56.0696 2.24269 402.319 -56.0696 2.24269 402.319
6 1 -58.4223 1.5405 401.792 -58.4223 1.5405 401.792
11 1 -55.2231 0.0427633 401.399 -55.2231 0.0427633 401.399
12 1 -54.3733 2.29884 400.434 -54.3733 2.29884 400.434
16 1 -52.0205 2.98976 400.892 -52.0205 2.98976 400.892
15 1 -52.8788 0.782179 401.883 -52.8788 0.782179 401.883
14 1 -53.5533 0.100233 399.584 -53.5533 0.100233 399.584
17 1 -51.1757 0.790307 400.025 -51.1757 0.790307 400.025
13 1 -53.7234 2.98187 402.8 -53.7234 2.98187 402.8
22 1 -47.9894 3.76422 399.623 -47.9894 3.76422 399.623
20 1 -48.8393 1.54453 400.481 -48.8393 1.54453 400.481
19 1 -49.7015 3.7324 401.426 -49.7015 3.7324 401.426
18 1 -50.5409 1.51031 402.372 -50.5409 1.51031 402.372
21 1 -48.2146 2.2563 402.872 -48.2146 2.2563 402.872
23 1 -47.3616 0.0564746 401.945 -47.3616 0.0564746 401.945
26 1 -45.0111 0.784459 402.416 -45.0111 0.784459 402.416
24 1 -46.5209 2.27746 401.008 -46.5209 2.27746 401.008
28 1 -44.1636 3.00807 401.504 -44.1636 3.00807 401.504
25 1 -45.6606 0.0964692 400.06 -45.6606 0.0964692 400.06
29 1 -43.3023 0.784862 400.513 -43.3023 0.784862 400.513
31 1 -42.4522 3.01295 399.65 -42.4522 3.01295 399.65
34 1 -40.1204 3.78098 400.114 -40.1204 3.78098 400.114
32 1 -41.822 3.73825 401.996 -41.822 3.73825 401.996
33 1 -40.9868 1.53475 401.06 -40.9868 1.53475 401.06
30 1 -42.6809 1.51199 402.923 -42.6809 1.51199 402.923
35 1 -39.4758 0.0431891 402.472 -39.4758 0.0431891 402.472
40 1 -36.9146 2.27146 399.709 -36.9146 2.27146 399.709
37 1 -38.6286 2.26606 401.561 -38.6286 2.26606 401.561
41 1 -36.2873 2.99695 402.057 -36.2873 2.99695 402.057
38 1 -37.7643 0.0432219 400.572 -37.7643 0.0432219 400.572
39 1 -37.1465 0.77101 402.983 -37.1465 0.77101 402.983
43 1 -34.5844 3.0403 400.175 -34.5844 3.0403 400.175
42 1 -35.4508 0.793831 401.121 -35.4508 0.793831 401.121
44 1 -33.9413 3.72944 402.534 -33.9413 3.72944 402.534
46 1 -33.0937 1.52501 401.623 -33.0937 1.52501 401.623
47 1 -32.2292 3.72982 400.634 -32.2292 3.72982 400.634
49 1 -31.3795 1.53057 399.771 -31.3795 1.53057 399.771
52 1 -29.05 2.29936 400.238 -29.05 2.29936 400.238
50 1 -30.7531 2.25589 402.119 -30.7531 2.25589 402.119
51 1 -29.9165 0.0528648 401.184 -29.9165 0.0528648 401.184
53 1 -28.4076 2.98818 402.597 -28.4076 2.98818 402.597
54 1 -28.2223 0.10024 399.39 -28.2223 0.10024 399.39
48 1 -31.6126 0.0298736 403.045 -31.6126 0.0298736 403.045
58 1 -25.8457 0.789305 399.834 -25.8457 0.789305 399.834
59 1 -25.2199 1.51455 402.183 -25.2199 1.51455 402.183
56 1 -26.6954 2.98863 400.697 -26.6954 2.98863 400.697
55 1 -27.5599 0.783755 401.686 -27.5599 0.783755 401.686
60 1 -24.3833 3.73903 401.248 -24.3833 3.73903 401.248
57 1 -26.0794 3.71599 403.109 -26.0794 3.71599 403.109
61 1 -23.5169 1.55805 400.302 -23.5169 1.55805 400.302
63 1 -22.6895 3.78635 399.454 -22.6895 3.78635 399.454
62 1 -22.8749 2.24656 402.662 -22.8749 2.24656 402.662
64 1 -22.0272 0.0421016 401.751 -22.0272 0.0421016 401.751
65 1 -21.1629 2.24693 400.761 -21.1629 2.24693 400.761
66 1 -20.5472 2.97423 403.174 -20.5472 2.97423 403.174
70 1 -17.9851 0.816031 400.367 -17.9851 0.816031 400.367
68 1 -19.6877 0.772749 402.248 -19.6877 0.772749 402.248
69 1 -18.8517 2.99701 401.313 -18.8517 2.99701 401.313
67 1 -20.3132 0.0475318 399.899 -20.3132 0.0475318 399.899
72 1 -17.1601 3.04396 399.518 -17.1601 3.04396 399.518
71 1 -17.3425 1.5046 402.727 -17.3425 1.5046 402.727
75 1 -14.7851 3.73343 399.962 -14.7851 3.73343 399.962
74 1 -15.6316 1.5055 400.825 -15.6316 1.5055 400.825
73 1 -16.4964 3.72731 401.815 -16.4964 3.72731 401.815
76 1 -14.1554 0.0256612 402.307 -14.1554 0.0256612 402.307
77 1 -13.313 2.24708 401.363 -13.313 2.24708 401.363
348 1 -15.0121 2.22932 403.234 -15.0121 2.22932 403.234
80 1 -11.598 2.27845 399.563 -11.598 2.27845 399.563
81 1 -10.9735 2.99807 401.886 -10.9735 2.99807 401.886
78 1 -12.4491 0.0588907 400.421 -12.4491 0.0588907 400.421
79 1 -11.8285 0.770745 402.811 -11.8285 0.770745 402.811
83 1 -9.26993 3.03784 400.003 -9.26993 3.03784 400.003
82 1 -10.1316 0.791462 400.951 -10.1316 0.791462 400.951
87 1 -6.91245 3.72611 400.46 -6.91245 3.72611 400.46
84 1 -8.62371 3.72578 402.361 -8.62371 3.72578 402.361
86 1 -7.77502 1.52184 401.45 -7.77502 1.52184 401.45
89 1 -6.06144 1.52671 399.598 -6.06144 1.52671 399.598
90 1 -5.43456 2.25216 401.946 -5.43456 2.25216 401.946
88 1 -6.29436 0.0258653 402.871 -6.29436 0.0258653 402.871
92 1 -3.73098 2.29524 400.065 -3.73098 2.29524 400.065
93 1 -3.08939 2.98464 402.425 -3.08939 2.98464 402.425
91 1 -4.59836 0.0488199 401.01 -4.59836 0.0488199 401.01
96 1 -1.37624 2.98514 400.526 -1.37624 2.98514 400.526
95 1 -2.24147 0.780209 401.515 -2.24147 0.780209 401.515
98 1 -0.525995 0.785948 399.664 -0.525995 0.785948 399.664
100 1 0.935212 3.73663 401.079 0.935212 3.73663 401.079
99 1 0.0981009 1.51181 402.014 0.0981009 1.51181 402.014
97 1 -0.761702 3.71302 402.939 -0.761702 3.71302 402.939
101 1 1.80208 1.55611 400.134 1.80208 1.55611 400.134
102 1 2.44248 2.24474 402.494 2.44248 2.24474 402.494
105 1 4.15555 2.24611 400.595 4.15555 2.24611 400.595
104 1 3.29047 0.0406985 401.583 3.29047 0.0406985 401.583
108 1 5.62871 0.772817 402.083 5.62871 0.772817 402.083
107 1 5.00536 0.0469324 399.733 5.00536 0.0469324 399.733
106 1 4.76907 2.97369 403.009 4.76907 2.97369 403.009
110 1 7.33217 0.817779 400.203 7.33217 0.817779 400.203
111 1 7.97219 1.50588 402.564 7.97219 1.50588 402.564
109 1 6.46564 2.99803 401.149 6.46564 2.99803 401.149
113 1 8.81987 3.72952 401.653 8.81987 3.72952 401.653
114 1 9.68476 1.50779 400.665 9.68476 1.50779 400.665
116 1 10.5341 3.73606 399.802 10.5341 3.73606 399.802
118 1 11.9937 2.26005 401.22 11.9937 2.26005 401.22
117 1 11.1571 0.0345395 402.154 11.1571 0.0345395 402.154
121 1 13.6857 2.30846 399.425 13.6857 2.30846 399.425
120 1 13.4998 0.767638 402.635 13.4998 0.767638 402.635
119 1 12.8599 0.0799975 400.273 12.8599 0.0799975 400.273
115 1 10.2978 2.23519 403.08 10.2978 2.23519 403.08
122 1 14.3471 2.99143 401.723 14.3471 2.99143 401.723
123 1 15.2117 0.769963 400.735 15.2117 0.769963 400.735
125 1 16.0605 2.99818 399.872 16.0605 2.99818 399.872
126 1 16.6833 3.72417 402.224 16.6833 3.72417 402.224
127 1 17.5197 1.52248 401.29 17.5197 1.52248 401.29
124 1 15.8245 1.49721 403.15 15.8245 1.49721 403.15
130 1 19.2101 1.571 399.494 19.2101 1.571 399.494
128 1 18.3852 3.77 400.343 18.3852 3.77 400.343
129 1 19.0254 0.0297095 402.705 19.0254 0.0297095 402.705
131 1 19.8723 2.25359 401.793 19.8723 2.25359 401.793
132 1 20.7363 0.0322004 400.804 20.7363 0.0322004 400.804
133 1 21.3494 0.759367 403.221 21.3494 0.759367 403.221
134 1 21.5846 2.26036 399.941 21.5846 2.26036 399.941
136 1 23.0431 0.784586 401.36 23.0431 0.784586 401.36
135 1 22.2079 2.98639 402.294 22.2079 2.98639 402.294
139 1 24.7304 0.832809 399.562 24.7304 0.832809 399.562
137 1 23.9084 3.03219 400.412 23.9084 3.03219 400.412
138 1 24.5499 3.71928 402.774 24.5499 3.71928 402.774
141 1 26.2589 3.72245 400.872 26.2589 3.72245 400.872
140 1 25.3948 1.51548 401.861 25.3948 1.51548 401.861
142 1 27.1036 1.52303 400.007 27.1036 1.52303 400.007
143 1 27.732 2.24323 402.356 27.732 2.24323 402.356
144 1 28.5734 0.038548 401.412 28.5734 0.038548 401.412
145 1 29.4356 2.27872 400.468 29.4356 2.27872 400.468
147 1 30.2837 0.0708242 399.609 30.2837 0.0708242 399.609
146 1 30.0555 2.9899 402.862 30.0555 2.9899 402.862
150 1 32.6089 0.833038 400.051 32.6089 0.833038 400.051
148 1 30.9089 0.790962 401.935 30.9089 0.790962 401.935
149 1 31.7494 3.0133 401 31.7494 3.0133 401
153 1 34.1028 3.74388 401.497 34.1028 3.74388 401.497
151 1 33.2558 1.51946 402.41 33.2558 1.51946 402.41
156 1 35.8133 3.74986 399.643 35.8133 3.74986 399.643
154 1 34.9641 1.52173 400.507 34.9641 1.52173 400.507
157 1 36.44 0.0483007 401.994 36.44 0.0483007 401.994
155 1 35.5818 2.24854 402.921 35.5818 2.24854 402.921
158 1 37.2748 2.27355 401.059 37.2748 2.27355 401.059
159 1 38.1403 0.0934188 400.111 38.1403 0.0934188 400.111
162 1 39.6289 3.00505 401.561 39.6289 3.00505 401.561
160 1 38.7827 0.781283 402.473 38.7827 0.781283 402.473
163 1 40.4927 0.783571 400.571 40.4927 0.783571 400.571
165 1 41.3409 3.01185 399.708 41.3409 3.01185 399.708
164 1 41.1077 1.51085 402.987 41.1077 1.51085 402.987
168 1 43.6661 3.78391 400.177 43.6661 3.78391 400.177
167 1 42.8012 1.53627 401.125 42.8012 1.53627 401.125
166 1 41.9656 3.73789 402.059 41.9656 3.73789 402.059
169 1 44.3081 0.0435782 402.539 44.3081 0.0435782 402.539
171 1 45.1543 2.26762 401.626 45.1543 2.26762 401.626
174 1 46.8654 2.27468 399.772 46.8654 2.27468 399.772
175 1 47.4904 3.00048 402.124 47.4904 3.00048 402.124
172 1 46.0177 0.0464256 400.636 46.0177 0.0464256 400.636
173 1 46.6326 0.773263 403.052 46.6326 0.773263 403.052
177 1 49.1901 3.04671 400.241 49.1901 3.04671 400.241
176 1 48.3256 0.799019 401.189 48.3256 0.799019 401.189
179 1 50.0139 0.847713 399.392 50.0139 0.847713 399.392
181 1 51.5415 3.73645 400.7 51.5415 3.73645 400.7
178 1 49.8325 3.73344 402.603 49.8325 3.73344 402.603
180 1 50.6783 1.53009 401.69 50.6783 1.53009 401.69
183 1 52.3888 1.53721 399.836 52.3888 1.53721 399.836
184 1 53.0142 2.26282 402.188 53.0142 2.26282 402.188
186 1 54.7133 2.30907 400.304 54.7133 2.30907 400.304
187 1 55.3562 2.99556 402.666 55.3562 2.99556 402.666
188 1 55.5366 0.110039 399.454 55.5366 0.110039 399.454
185 1 53.8492 0.0613999 401.253 53.8492 0.0613999 401.253
182 1 52.1567 0.0355543 403.116 52.1567 0.0355543 403.116
189 1 56.2018 0.792214 401.753 56.2018 0.792214 401.753
192 1 57.9116 0.799299 399.898 57.9116 0.799299 399.898
194 1 59.3722 3.75077 401.314 59.3722 3.75077 401.314
193 1 58.5375 1.52476 402.25 58.5375 1.52476 402.25
190 1 57.0646 2.99858 400.762 57.0646 2.99858 400.762
191 1 57.6804 3.72495 403.178 57.6804 3.72495 403.178
195 1 60.2361 1.57094 400.366 60.2361 1.57094 400.366
197 1 61.059 3.79931 399.515 61.059 3.79931 399.515
199 1 62.5873 2.26022 400.823 62.5873 2.26022 400.823
196 1 60.8796 2.25727 402.727 60.8796 2.25727 402.727
198 1 61.7248 0.05388 401.814 61.7248 0.05388 401.814
200 1 63.2038 2.98648 403.239 63.2038 2.98648 403.239
202 1 64.0606 0.786227 402.31 64.0606 0.786227 402.31
201 1 63.434 0.0608738 399.958 63.434 0.0608738 399.958
206 1 66.581 3.0606 399.575 66.581 3.0606 399.575
204 1 65.7585 0.832259 400.426 65.7585 0.832259 400.426
203 1 64.895 3.01219 401.375 64.895 3.01219 401.375
205 1 66.4027 1.51846 402.787 66.4027 1.51846 402.787
207 1 67.2477 3.74242 401.873 67.2477 3.74242 401.873
209 1 68.9562 3.74919 400.017 68.9562 3.74919 400.017
208 1 68.1097 1.52114 400.882 68.1097 1.52114 400.882
211 1 70.4172 2.27262 401.433 70.4172 2.27262 401.433
210 1 69.5837 0.0470167 402.369 69.5837 0.0470167 402.369
212 1 71.2807 0.0925811 400.483 71.2807 0.0925811 400.483
214 1 72.1009 2.32055 399.632 72.1009 2.32055 399.632
217 1 74.4752 3.01002 400.072 74.4752 3.01002 400.072
216 1 73.6319 0.782076 400.938 73.6319 0.782076 400.938
215 1 72.7697 3.00268 401.93 72.7697 3.00268 401.93
213 1 71.9264 0.779079 402.845 71.9264 0.779079 402.845
218 1 75.108 3.72948 402.419 75.108 3.72948 402.419
220 1 76.8086 3.76444 400.528 76.8086 3.76444 400.528
219 1 75.9479 1.52455 401.474 75.9479 1.52455 401.474
222 1 77.6555 1.55647 399.668 77.6555 1.55647 399.668
223 1 78.285 2.27604 401.992 78.285 2.27604 401.992
221 1 77.433 0.0477672 402.92 77.433 0.0477672 402.92
224 1 79.1241 0.0705565 401.055 79.1241 0.0705565 401.055
225 1 79.9824 2.31741 400.104 79.9824 2.31741 400.104
229 1 82.3391 3.00555 400.556 82.3391 3.00555 400.556
228 1 81.4793 0.8006 401.548 81.4793 0.8006 401.548
226 1 80.6334 3.00387 402.462 80.6334 3.00387 402.462
231 1 83.1874 0.806175 399.692 83.1874 0.806175 399.692
234 1 85.5168 1.57565 400.155 85.5168 1.57565 400.155
233 1 84.6521 3.75623 401.103 84.6521 3.75623 401.103
235 1 86.1631 2.26391 402.514 86.1631 2.26391 402.514
232 1 83.8185 1.53146 402.04 83.8185 1.53146 402.04
230 1 82.9614 3.73197 402.968 82.9614 3.73197 402.968
241 1 89.3476 0.791737 402.095 89.3476 0.791737 402.095
238 1 87.8711 2.26541 400.611 87.8711 2.26541 400.611
240 1 88.7187 0.0662132 399.746 88.7187 0.0662132 399.746
237 1 87.0084 0.0599219 401.601 87.0084 0.0599219 401.601
239 1 88.4903 2.99253 403.023 88.4903 2.99253 403.023
242 1 90.1825 3.01699 401.159 90.1825 3.01699 401.159
243 1 91.0467 0.836657 400.211 91.0467 0.836657 400.211
247 1 93.4004 1.52607 400.667 93.4004 1.52607 400.667
246 1 92.5379 3.74806 401.658 92.5379 3.74806 401.658
244 1 91.692 1.52443 402.571 91.692 1.52443 402.571
254 1 97.3991 2.32355 399.419 97.3991 2.32355 399.419
249 1 94.2487 3.75435 399.803 94.2487 3.75435 399.803
253 1 97.2214 0.785298 402.628 97.2214 0.785298 402.628
251 1 95.711 2.27699 401.216 95.711 2.27699 401.216
252 1 96.5768 0.0961199 400.269 96.5768 0.0961199 400.269
250 1 94.8768 0.0522833 402.152 94.8768 0.0522833 402.152
248 1 94.0189 2.25318 403.08 94.0189 2.25318 403.08
258 1 99.7735 3.01221 399.86 99.7735 3.01221 399.86
255 1 98.066 3.00825 401.715 98.066 3.00825 401.715
259 1 100.402 3.74584 402.214 100.402 3.74584 402.214
260 1 101.239 1.54776 401.283 101.239 1.54776 401.283
256 1 98.9315 0.78617 400.725 98.9315 0.78617 400.725
257 1 99.5473 1.51781 403.14 99.5473 1.51781 403.14
263 1 102.934 1.59496 399.512 102.934 1.59496 399.512
261 1 102.085 3.79833 400.334 102.085 3.79833 400.334
264 1 103.617 2.26481 401.758 103.617 2.26481 401.758
265 1 104.454 0.032386 400.787 104.454 0.032386 400.787
262 1 102.754 0.0445767 402.68 102.754 0.0445767 402.68
266 1 105.08 0.771462 403.195 105.08 0.771462 403.195
268 1 -60.9686 3.71453 404.639 -60.9686 3.71453 404.639
271 1 -59.4824 2.22222 406.091 -59.4824 2.22222 406.091
270 1 -60.1226 1.51683 403.684 -60.1226 1.51683 403.684
267 1 -61.8174 1.48795 405.589 -61.8174 1.48795 405.589
272 1 -58.6369 0.0223748 405.143 -58.6369 0.0223748 405.143
269 1 -60.3318 4.4232 407.041 -60.3318 4.4232 407.041
277 1 -56.294 0.750733 405.648 -56.294 0.750733 405.648
274 1 -57.7879 2.24854 404.191 -57.7879 2.24854 404.191
278 1 -55.4379 2.96978 404.699 -55.4379 2.96978 404.699
275 1 -57.144 2.9538 406.591 -57.144 2.9538 406.591
276 1 -56.936 0.0394162 403.263 -56.936 0.0394162 403.263
279 1 -54.8031 3.68149 407.096 -54.8031 3.68149 407.096
280 1 -54.5833 0.761107 403.762 -54.5833 0.761107 403.762
286 1 -51.3955 3.71235 403.301 -51.3955 3.71235 403.301
282 1 -53.0961 3.6963 405.203 -53.0961 3.6963 405.203
284 1 -52.243 1.49263 404.263 -52.243 1.49263 404.263
281 1 -53.9504 1.476 406.153 -53.9504 1.476 406.153
285 1 -51.6107 2.20803 406.659 -51.6107 2.20803 406.659
291 1 -48.4207 0.740682 406.214 -48.4207 0.740682 406.214
288 1 -49.9089 2.23123 404.766 -49.9089 2.23123 404.766
292 1 -47.5702 2.96695 405.268 -47.5702 2.96695 405.268
287 1 -50.7598 0.00406392 405.709 -50.7598 0.00406392 405.709
290 1 -49.0618 0.0280438 403.818 -49.0618 0.0280438 403.818
294 1 -46.7177 0.765642 404.321 -46.7177 0.765642 404.321
297 1 -45.2301 3.69819 405.771 -45.2301 3.69819 405.771
296 1 -45.8695 2.98853 403.376 -45.8695 2.98853 403.376
298 1 -44.3788 1.4949 404.821 -44.3788 1.4949 404.821
295 1 -46.0809 1.47348 406.717 -46.0809 1.47348 406.717
300 1 -43.5272 3.72002 403.881 -43.5272 3.72002 403.881
306 1 -40.3357 2.24611 403.432 -40.3357 2.24611 403.432
302 1 -42.0381 2.22566 405.323 -42.0381 2.22566 405.323
304 1 -41.1832 0.0241231 404.376 -41.1832 0.0241231 404.376
301 1 -42.8884 0.00200801 406.272 -42.8884 0.00200801 406.272
305 1 -40.5487 0.733112 406.774 -40.5487 0.733112 406.774
307 1 -39.6979 2.95728 405.829 -39.6979 2.95728 405.829
310 1 -37.9941 2.97901 403.939 -37.9941 2.97901 403.939
312 1 -36.5054 1.48502 405.383 -36.5054 1.48502 405.383
311 1 -37.3563 3.68886 406.331 -37.3563 3.68886 406.331
308 1 -38.8457 0.754008 404.879 -38.8457 0.754008 404.879
313 1 -35.6501 3.71065 404.437 -35.6501 3.71065 404.437
315 1 -34.8016 1.50508 403.493 -34.8016 1.50508 403.493
316 1 -34.1653 2.21646 405.89 -34.1653 2.21646 405.89
317 1 -33.3125 0.0129509 404.94 -33.3125 0.0129509 404.94
314 1 -35.0166 4.41994 406.835 -35.0166 4.41994 406.835
319 1 -32.4604 2.23786 404.001 -32.4604 2.23786 404.001
320 1 -31.8237 2.94786 406.394 -31.8237 2.94786 406.394
324 1 -29.2681 0.763848 403.556 -29.2681 0.763848 403.556
321 1 -30.9724 0.743874 405.445 -30.9724 0.743874 405.445
322 1 -30.1168 2.96944 404.5 -30.1168 2.96944 404.5
323 1 -29.4841 3.67881 406.898 -29.4841 3.67881 406.898
325 1 -28.6325 1.47523 405.953 -28.6325 1.47523 405.953
328 1 -26.9273 1.49652 404.065 -26.9273 1.49652 404.065
326 1 -27.7796 3.6991 405.004 -27.7796 3.6991 405.004
329 1 -26.2912 2.20653 406.458 -26.2912 2.20653 406.458
330 1 -25.4397 0.00247715 405.51 -25.4397 0.00247715 405.51
331 1 -24.584 2.22797 404.564 -24.584 2.22797 404.564
337 1 -21.3948 0.754865 404.13 -21.3948 0.754865 404.13
334 1 -23.1001 0.73374 406.018 -23.1001 0.73374 406.018
335 1 -22.2471 2.95751 405.069 -22.2471 2.95751 405.069
333 1 -23.7353 0.0223374 403.621 -23.7353 0.0223374 403.621
338 1 -20.7589 1.46494 406.523 -20.7589 1.46494 406.523
332 1 -23.9518 2.9374 406.963 -23.9518 2.9374 406.963
340 1 -19.0517 1.4862 404.629 -19.0517 1.4862 404.629
342 1 -18.2034 3.70783 403.686 -18.2034 3.70783 403.686
339 1 -19.9075 3.68822 405.575 -19.9075 3.68822 405.575
344 1 -16.714 2.2145 405.132 -16.714 2.2145 405.132
343 1 -17.5678 4.41869 406.083 -17.5678 4.41869 406.083
341 1 -18.4194 2.19533 407.027 -18.4194 2.19533 407.027
347 1 -15.2297 0.724532 406.591 -15.2297 0.724532 406.591
349 1 -14.3784 2.94841 405.643 -14.3784 2.94841 405.643
346 1 -15.8624 0.0109395 404.193 -15.8624 0.0109395 404.193
350 1 -13.5267 0.747269 404.701 -13.5267 0.747269 404.701
351 1 -12.891 1.45882 407.098 -12.891 1.45882 407.098
353 1 -12.039 3.68371 406.152 -12.039 3.68371 406.152
352 1 -12.6774 2.97065 403.755 -12.6774 2.97065 403.755
354 1 -11.1873 1.48187 405.207 -11.1873 1.48187 405.207
356 1 -10.3331 3.70751 404.262 -10.3331 3.70751 404.262
358 1 -9.48343 1.50257 403.319 -9.48343 1.50257 403.319
357 1 -9.69911 4.41574 406.659 -9.69911 4.41574 406.659
363 1 -6.5058 2.94361 406.22 -6.5058 2.94361 406.22
359 1 -8.8471 2.21257 405.715 -8.8471 2.21257 405.715
362 1 -7.1418 2.23393 403.827 -7.1418 2.23393 403.827
360 1 -7.99458 0.00898248 404.766 -7.99458 0.00898248 404.766
364 1 -5.65448 0.739662 405.272 -5.65448 0.739662 405.272
368 1 -3.95016 0.760055 403.383 -3.95016 0.760055 403.383
366 1 -4.79865 2.9655 404.327 -4.79865 2.9655 404.327
369 1 -3.31525 1.47139 405.782 -3.31525 1.47139 405.782
367 1 -4.16685 3.67472 406.726 -4.16685 3.67472 406.726
370 1 -2.46219 3.69561 404.833 -2.46219 3.69561 404.833
372 1 -1.60991 1.49328 403.894 -1.60991 1.49328 403.894
376 1 0.732659 2.2254 404.395 0.732659 2.2254 404.395
373 1 -0.974739 2.20326 406.288 -0.974739 2.20326 406.288
374 1 -0.123166 4.42702 405.34 -0.123166 4.42702 405.34
379 1 2.21543 0.731577 405.851 2.21543 0.731577 405.851
378 1 1.58168 0.0201148 403.452 1.58168 0.0201148 403.452
377 1 1.36362 2.93481 406.795 1.36362 2.93481 406.795
383 1 4.55534 1.46368 406.358 4.55534 1.46368 406.358
380 1 3.06854 2.95582 404.903 3.06854 2.95582 404.903
382 1 3.92099 0.753661 403.964 3.92099 0.753661 403.964
384 1 5.4069 3.68757 405.411 5.4069 3.68757 405.411
385 1 6.26268 1.48613 404.466 6.26268 1.48613 404.466
387 1 7.11158 3.70853 403.523 7.11158 3.70853 403.523
388 1 7.74478 4.41989 405.922 7.74478 4.41989 405.922
386 1 6.89306 2.19552 406.866 6.89306 2.19552 406.866
389 1 8.59775 2.21684 404.973 8.59775 2.21684 404.973
391 1 9.44998 0.0148874 404.035 9.44998 0.0148874 404.035
392 1 10.084 0.724822 406.429 10.084 0.724822 406.429
393 1 10.9354 2.94888 405.482 10.9354 2.94888 405.482
394 1 11.7909 0.747598 404.537 11.7909 0.747598 404.537
396 1 12.6395 2.97018 403.594 12.6395 2.97018 403.594
397 1 13.2725 3.68144 405.993 13.2725 3.68144 405.993
395 1 12.4211 1.45693 406.937 12.4211 1.45693 406.937
398 1 14.1252 1.47853 405.044 14.1252 1.47853 405.044
400 1 14.9771 3.70417 404.106 14.9771 3.70417 404.106
401 1 15.6111 4.41404 406.501 15.6111 4.41404 406.501
402 1 16.4622 2.21076 405.553 16.4622 2.21076 405.553
403 1 17.3173 0.00956847 404.607 17.3173 0.00956847 404.607
405 1 18.1656 2.23225 403.664 18.1656 2.23225 403.664
406 1 18.7989 2.94348 406.064 18.7989 2.94348 406.064
409 1 20.5026 2.9663 404.176 20.5026 2.9663 404.176
410 1 21.1371 3.67616 406.571 21.1371 3.67616 406.571
407 1 19.6511 0.740602 405.115 19.6511 0.740602 405.115
404 1 17.9477 0.718885 407.009 17.9477 0.718885 407.009
412 1 22.8426 3.69917 404.677 22.8426 3.69917 404.677
411 1 21.9876 1.47288 405.623 21.9876 1.47288 405.623
415 1 24.3243 2.20486 406.133 24.3243 2.20486 406.133
414 1 23.69 1.49431 403.734 23.69 1.49431 403.734
416 1 25.1771 0.00152469 405.183 25.1771 0.00152469 405.183
413 1 23.4736 4.40807 407.078 23.4736 4.40807 407.078
418 1 26.0276 2.22633 404.242 26.0276 2.22633 404.242
419 1 26.6592 2.93977 406.643 26.6592 2.93977 406.643
420 1 26.8766 0.0184328 403.284 26.8766 0.0184328 403.284
421 1 27.5095 0.737195 405.695 27.5095 0.737195 405.695
422 1 28.3599 2.96446 404.752 28.3599 2.96446 404.752
424 1 29.2081 0.761483 403.806 29.2081 0.761483 403.806
426 1 30.6964 3.70035 405.26 30.6964 3.70035 405.26
425 1 29.846 1.47389 406.205 29.846 1.47389 406.205
430 1 32.3976 3.72293 403.369 32.3976 3.72293 403.369
428 1 31.5493 1.49942 404.313 31.5493 1.49942 404.313
429 1 32.183 2.20715 406.713 32.183 2.20715 406.713
432 1 33.8848 2.22962 404.818 33.8848 2.22962 404.818
431 1 33.0338 0.00486974 405.768 33.0338 0.00486974 405.768
435 1 35.3723 0.73708 406.272 35.3723 0.73708 406.272
436 1 36.2222 2.96149 405.323 36.2222 2.96149 405.323
434 1 34.7361 0.0280497 403.878 34.7361 0.0280497 403.878
440 1 37.9235 2.98355 403.433 37.9235 2.98355 403.433
438 1 37.0765 0.760692 404.377 37.0765 0.760692 404.377
439 1 37.7088 1.46924 406.778 37.7088 1.46924 406.778
442 1 39.4105 1.49172 404.883 39.4105 1.49172 404.883
441 1 38.5589 3.6942 405.832 38.5589 3.6942 405.832
444 1 40.2612 3.71762 403.943 40.2612 3.71762 403.943
446 1 41.7473 2.22393 405.389 41.7473 2.22393 405.389
445 1 40.8972 4.42685 406.338 40.8972 4.42685 406.338
450 1 43.449 2.24591 403.498 43.449 2.24591 403.498
451 1 44.0839 2.95653 405.898 44.0839 2.95653 405.898
448 1 42.6015 0.0230055 404.442 42.6015 0.0230055 404.442
449 1 43.2336 0.731605 406.844 43.2336 0.731605 406.844
452 1 44.9354 0.753957 404.948 44.9354 0.753957 404.948
454 1 45.7863 2.97991 404.008 45.7863 2.97991 404.008
457 1 48.1263 3.71271 404.507 48.1263 3.71271 404.507
455 1 46.4221 3.68904 406.403 46.4221 3.68904 406.403
456 1 47.2722 1.48612 405.454 47.2722 1.48612 405.454
459 1 48.9736 1.50825 403.563 48.9736 1.50825 403.563
458 1 48.7584 4.42114 406.908 48.7584 4.42114 406.908
460 1 49.6087 2.21864 405.963 49.6087 2.21864 405.963
463 1 51.3107 2.24212 404.072 51.3107 2.24212 404.072
461 1 50.4601 0.0161136 405.013 50.4601 0.0161136 405.013
464 1 51.9468 2.95105 406.467 51.9468 2.95105 406.467
465 1 52.7966 0.748166 405.518 52.7966 0.748166 405.518
468 1 54.4976 0.770366 403.626 54.4976 0.770366 403.626
466 1 53.6506 2.97479 404.571 53.6506 2.97479 404.571
469 1 55.1331 1.48055 406.026 55.1331 1.48055 406.026
467 1 54.2831 3.68303 406.972 54.2831 3.68303 406.972
470 1 55.9843 3.7055 405.075 55.9843 3.7055 405.075
472 1 56.8346 1.50406 404.135 56.8346 1.50406 404.135
475 1 59.1745 2.23657 404.633 59.1745 2.23657 404.633
473 1 57.4712 2.21283 406.53 57.4712 2.21283 406.53
474 1 58.3208 0.00994979 405.58 58.3208 0.00994979 405.58
477 1 60.0213 0.0321205 403.688 60.0213 0.0321205 403.688
481 1 62.3583 0.765632 404.196 62.3583 0.765632 404.196
478 1 60.6573 0.742197 406.087 60.6573 0.742197 406.087
479 1 61.5082 2.96711 405.137 61.5082 2.96711 405.137
482 1 62.9956 1.47434 406.59 62.9956 1.47434 406.59
476 1 59.8075 2.94469 407.034 59.8075 2.94469 407.034
483 1 63.8449 3.69887 405.641 63.8449 3.69887 405.641
486 1 65.5448 3.72089 403.748 65.5448 3.72089 403.748
488 1 67.0322 2.22832 405.196 67.0322 2.22832 405.196
484 1 64.6983 1.49796 404.693 64.6983 1.49796 404.693
487 1 66.1816 0.00351527 406.147 66.1816 0.00351527 406.147
485 1 65.332 2.20607 407.094 65.332 2.20607 407.094
490 1 67.882 0.026742 404.255 67.882 0.026742 404.255
493 1 69.3691 2.95988 405.699 69.3691 2.95988 405.699
491 1 68.5201 0.735501 406.649 68.5201 0.735501 406.649
494 1 70.2224 0.758872 404.751 70.2224 0.758872 404.751
492 1 68.727 2.2474 403.298 68.727 2.2474 403.298
496 1 71.0683 2.98155 403.806 71.0683 2.98155 403.806
497 1 71.7064 3.69107 406.204 71.7064 3.69107 406.204
500 1 73.4067 3.71271 404.309 73.4067 3.71271 404.309
498 1 72.5577 1.48786 405.252 72.5577 1.48786 405.252
502 1 74.2542 1.50477 403.349 74.2542 1.50477 403.349
501 1 74.0423 4.42515 406.709 74.0423 4.42515 406.709
503 1 74.8911 2.22265 405.758 74.8911 2.22265 405.758
506 1 76.5869 2.24691 403.866 76.5869 2.24691 403.866
507 1 77.2287 2.95855 406.264 77.2287 2.95855 406.264
504 1 75.7402 0.0224898 404.814 75.7402 0.0224898 404.814
508 1 78.0779 0.757594 405.316 78.0779 0.757594 405.316
510 1 78.9295 2.98407 404.368 78.9295 2.98407 404.368
512 1 79.7765 0.780006 403.423 79.7765 0.780006 403.423
514 1 81.2666 3.71347 404.868 81.2666 3.71347 404.868
516 1 82.1167 1.51176 403.927 82.1167 1.51176 403.927
513 1 80.4167 1.48877 405.819 80.4167 1.48877 405.819
511 1 79.5671 3.69105 406.766 79.5671 3.69105 406.766
517 1 82.7568 2.22025 406.319 82.7568 2.22025 406.319
523 1 85.9441 0.749142 405.873 85.9441 0.749142 405.873
520 1 84.4589 2.24367 404.421 84.4589 2.24367 404.421
518 1 83.6056 0.0171191 405.369 83.6056 0.0171191 405.369
522 1 85.3049 0.0388722 403.475 85.3049 0.0388722 403.475
521 1 85.0948 2.95173 406.82 85.0948 2.95173 406.82
526 1 87.6446 0.772222 403.981 87.6446 0.772222 403.981
528 1 89.1334 3.70557 405.424 89.1334 3.70557 405.424
524 1 86.7947 2.97399 404.922 86.7947 2.97399 404.922
529 1 89.9869 1.50443 404.476 89.9869 1.50443 404.476
527 1 88.2841 1.48121 406.374 88.2841 1.48121 406.374
536 1 93.8122 0.74246 406.43 93.8122 0.74246 406.43
531 1 90.8337 3.72703 403.531 90.8337 3.72703 403.531
533 1 92.3229 2.23487 404.978 92.3229 2.23487 404.978
532 1 91.472 0.0102307 405.929 91.472 0.0102307 405.929
535 1 93.1732 0.0330198 404.037 93.1732 0.0330198 404.037
530 1 90.6223 2.21293 406.875 90.6223 2.21293 406.875
538 1 95.5156 0.765566 404.533 95.5156 0.765566 404.533
541 1 97.0001 3.69981 405.986 97.0001 3.69981 405.986
540 1 96.3622 2.988 403.588 96.3622 2.988 403.588
537 1 94.6617 2.96673 405.48 94.6617 2.96673 405.48
539 1 96.1505 1.47479 406.932 96.1505 1.47479 406.932
546 1 100.193 2.22806 405.534 100.193 2.22806 405.534
544 1 98.7007 3.72374 404.096 98.7007 3.72374 404.096
542 1 97.8513 1.4975 405.036 97.8513 1.4975 405.036
547 1 101.047 0.0267682 404.587 101.047 0.0267682 404.587
545 1 99.3421 0.00375262 406.485 99.3421 0.00375262 406.485
553 1 104.232 2.97959 404.145 104.232 2.97959 404.145
550 1 102.531 2.95798 406.038 102.531 2.95798 406.038
554 1 104.87 3.69036 406.539 104.87 3.69036 406.539
549 1 101.899 2.24914 403.637 101.899 2.24914 403.637
551 1 103.382 0.754886 405.088 103.382 0.754886 405.088
548 1 101.681 0.733776 406.986 101.681 0.733776 406.986
560 1 -59.6935 0.704438 409.439 -59.6935 0.704438 409.439
558 1 -61.1813 2.19748 407.989 -61.1813 2.19748 407.989
562 1 -58.8431 2.92984 408.49 -58.8431 2.92984 408.49
559 1 -60.5438 2.90666 410.387 -60.5438 2.90666 410.387
556 1 -62.0318 4.39974 408.937 -62.0318 4.39974 408.937
273 1 -57.994 0.728172 407.542 -57.994 0.728172 407.542
565 1 -56.5048 3.66113 408.992 -56.5048 3.66113 408.992
568 1 -55.0168 2.16787 410.443 -55.0168 2.16787 410.443
567 1 -55.6547 1.45845 408.045 -55.6547 1.45845 408.045
564 1 -57.3551 1.43612 409.941 -57.3551 1.43612 409.941
563 1 -58.2053 3.63844 410.889 -58.2053 3.63844 410.889
573 1 -51.8266 0.696788 410 -51.8266 0.696788 410
571 1 -53.315 2.18887 408.55 -53.315 2.18887 408.55
283 1 -52.463 4.41179 407.602 -52.463 4.41179 407.602
569 1 -54.1661 4.39231 409.495 -54.1661 4.39231 409.495
574 1 -50.975 2.92105 409.055 -50.975 2.92105 409.055
572 1 -52.6778 2.89994 410.947 -52.6778 2.89994 410.947
576 1 -50.1233 0.71763 408.108 -50.1233 0.71763 408.108
578 1 -48.635 3.65362 409.558 -48.635 3.65362 409.558
289 1 -49.2716 2.94288 407.162 -49.2716 2.94288 407.162
580 1 -47.7835 1.45082 408.611 -47.7835 1.45082 408.611
577 1 -49.4867 1.42902 410.505 -49.4867 1.42902 410.505
293 1 -46.9322 3.67591 407.665 -46.9322 3.67591 407.665
299 1 -43.7405 2.20449 407.218 -43.7405 2.20449 407.218
583 1 -45.4434 2.18274 409.113 -45.4434 2.18274 409.113
585 1 -44.5918 4.40747 408.167 -44.5918 4.40747 408.167
582 1 -46.295 4.38554 410.061 -46.295 4.38554 410.061