ITEM: TIMESTEP
0
ITEM: NUMBER OF ATOMS
4630
ITEM: BOX BOUNDS xy xz yz pp pp pp
-6.3711153674564812e+01 1.0673018552276481e+02 0.0000000000000000e+00
0.0000000000000000e+00 4.4274527100805940e+00 0.0000000000000000e+00
3.8000000000000000e+02 5.0000000000000000e+02 0.0000000000000000e+00
ITEM: ATOMS id type x y z xu yu zu
27 1 -45.8866 2.04813 399.634 -45.8866 2.04813 399.634
36 1 -40.2591 1.30708 399.692 -40.2591 1.30708 399.692
31 1 -43.491 2.74454 400.073 -43.491 2.74454 400.073
22 1 -49.0974 3.49692 400.04 -49.0974 3.49692 400.04
20 1 -49.9817 1.27462 400.883 -49.9817 1.27462 400.883
40 1 -37.8655 2.00473 400.134 -37.8655 2.00473 400.134
34 1 -41.1205 3.50536 400.525 -41.1205 3.50536 400.525
17 1 -52.3561 0.524498 400.437 -52.3561 0.524498 400.437
9 1 -57.9504 1.21654 400.347 -57.9504 1.21654 400.347
43 1 -35.4959 2.76632 400.586 -35.4959 2.76632 400.586
12 1 -55.6063 2.02509 400.828 -55.6063 2.02509 400.828
5 1 -60.3379 0.538034 399.885 -60.3379 0.538034 399.885
29 1 -44.3558 0.515816 400.925 -44.3558 0.515816 400.925
853 1 -57.3879 2.6922 414.976 -57.3879 2.6922 414.976
873 1 -46.1391 1.21679 415.106 -46.1391 1.21679 415.106
865 1 -50.2545 0.473923 416.477 -50.2545 0.473923 416.477
1174 1 -37.494 1.94182 418.041 -37.494 1.94182 418.041
883 1 -40.5137 0.477723 415.17 -40.5137 0.477723 415.17
863 1 -51.7649 1.95555 415.041 -51.7649 1.95555 415.041
315 1 -35.7222 1.26006 403.871 -35.7222 1.26006 403.871
307 1 -40.7024 2.72767 406.183 -40.7024 2.72767 406.183
1150 1 -51.9902 0.465966 418.349 -51.9902 0.465966 418.349
855 1 -55.878 1.21089 416.413 -55.878 1.21089 416.413
310 1 -38.9659 2.73668 404.315 -38.9659 2.73668 404.315
871 1 -47.0076 3.42698 416.042 -47.0076 3.42698 416.042
16 1 -53.2203 2.72284 401.291 -53.2203 2.72284 401.291
309 1 -39.1916 1.24602 407.616 -39.1916 1.24602 407.616
1156 1 -48.7442 3.41964 417.914 -48.7442 3.41964 417.914
867 1 -49.3864 2.69139 415.541 -49.3864 2.69139 415.541
1159 1 -46.3657 4.15531 418.414 -46.3657 4.15531 418.414
1168 1 -40.7405 3.41631 418.478 -40.7405 3.41631 418.478
1170 1 -39.8722 1.20616 417.542 -39.8722 1.20616 417.542
594 1 -40.0599 3.45597 408.554 -40.0599 3.45597 408.554
37 1 -39.6072 2.00837 401.967 -39.6072 2.00837 401.967
851 1 -58.2552 0.474137 415.913 -58.2552 0.474137 415.913
857 1 -55.0106 3.42889 415.476 -55.0106 3.42889 415.476
592 1 -40.9281 1.23855 409.49 -40.9281 1.23855 409.49
849 1 -59.1226 2.68358 416.85 -59.1226 2.68358 416.85
877 1 -43.7605 1.95229 415.606 -43.7605 1.95229 415.606
1143 1 -56.7453 3.42034 417.349 -56.7453 3.42034 417.349
1140 1 -58.4801 3.41185 419.223 -58.4801 3.41185 419.223
845 1 -61.4997 1.94686 416.35 -61.4997 1.94686 416.35
875 1 -44.629 4.16249 416.542 -44.629 4.16249 416.542
886 1 -38.777 0.485015 413.297 -38.777 0.485015 413.297
891 1 -35.5307 3.43818 412.861 -35.5307 3.43818 412.861
39 1 -38.1022 0.51995 403.365 -38.1022 0.51995 403.365
1177 1 -35.9842 0.460163 419.477 -35.9842 0.460163 419.477
1167 1 -41.6089 1.199 419.414 -41.6089 1.199 419.414
8 1 -58.827 3.47126 401.303 -58.827 3.47126 401.303
869 1 -47.876 1.20965 416.978 -47.876 1.20965 416.978
1136 1 -60.8574 2.67517 418.724 -60.8574 2.67517 418.724
1162 1 -44.8555 2.67353 419.85 -44.8555 2.67353 419.85
15 1 -54.0921 0.525631 402.275 -54.0921 0.525631 402.275
280 1 -55.8325 0.515428 404.123 -55.8325 0.515428 404.123
277 1 -57.581 0.51953 405.984 -57.581 0.51953 405.984
273 1 -59.3177 0.511068 407.853 -59.3177 0.511068 407.853
560 1 -61.0502 0.499874 409.728 -61.0502 0.499874 409.728
557 1 -62.7841 0.490404 411.603 -62.7841 0.490404 411.603
26 1 -46.0947 0.530074 402.805 -46.0947 0.530074 402.805
294 1 -47.8353 0.52406 404.686 -47.8353 0.52406 404.686
291 1 -49.5726 0.51182 406.555 -49.5726 0.51182 406.555
576 1 -51.3098 0.50338 408.426 -51.3098 0.50338 408.426
573 1 -53.0487 0.49777 410.295 -53.0487 0.49777 410.295
570 1 -54.7857 0.49109 412.166 -54.7857 0.49109 412.166
854 1 -56.5206 0.482799 414.039 -56.5206 0.482799 414.039
305 1 -41.5693 0.510551 407.118 -41.5693 0.510551 407.118
589 1 -43.3063 0.503034 408.991 -43.3063 0.503034 408.991
586 1 -45.0433 0.495497 410.863 -45.0433 0.495497 410.863
872 1 -46.7806 0.488257 412.735 -46.7806 0.488257 412.735
599 1 -37.0404 0.492471 411.425 -37.0404 0.492471 411.425
1132 1 -63.2347 1.9386 418.224 -63.2347 1.9386 418.224
4 1 -60.6124 3.49656 403.095 -60.6124 3.49656 403.095
268 1 -62.3364 3.47214 404.971 -62.3364 3.47214 404.971
1152 1 -51.1225 2.68373 417.413 -51.1225 2.68373 417.413
19 1 -50.8605 3.46658 401.808 -50.8605 3.46658 401.808
286 1 -52.5876 3.46255 403.67 -52.5876 3.46255 403.67
282 1 -54.3245 3.46191 405.55 -54.3245 3.46191 405.55
279 1 -56.0686 3.46125 407.419 -56.0686 3.46125 407.419
565 1 -57.8064 3.45532 409.29 -57.8064 3.45532 409.29
563 1 -59.5404 3.44586 411.165 -59.5404 3.44586 411.165
846 1 -61.2746 3.43667 413.039 -61.2746 3.43667 413.039
32 1 -42.8501 3.47771 402.392 -42.8501 3.47771 402.392
300 1 -44.5894 3.47534 404.255 -44.5894 3.47534 404.255
297 1 -46.3272 3.46729 406.121 -46.3272 3.46729 406.121
293 1 -48.0633 3.45892 407.992 -48.0633 3.45892 407.992
578 1 -49.8004 3.45092 409.863 -49.8004 3.45092 409.863
575 1 -51.5385 3.44424 411.733 -51.5385 3.44424 411.733
860 1 -53.2753 3.43708 413.604 -53.2753 3.43708 413.604
591 1 -41.7966 3.44848 410.426 -41.7966 3.44848 410.426
588 1 -43.5334 3.44116 412.298 -43.5334 3.44116 412.298
874 1 -45.2705 3.43402 414.17 -45.2705 3.43402 414.17
10 1 -57.3356 1.98427 402.696 -57.3356 1.98427 402.696
274 1 -59.0964 2.00551 404.541 -59.0964 2.00551 404.541
271 1 -60.8283 1.99307 406.413 -60.8283 1.99307 406.413
558 1 -62.5593 1.98054 408.291 -62.5593 1.98054 408.291
24 1 -47.6235 2.00375 401.399 -47.6235 2.00375 401.399
21 1 -49.3515 2.00233 403.246 -49.3515 2.00233 403.246
288 1 -51.0802 1.99121 405.121 -51.0802 1.99121 405.121
285 1 -52.818 1.98322 406.992 -52.818 1.98322 406.992
571 1 -54.5588 1.97912 408.859 -54.5588 1.97912 408.859
568 1 -56.2961 1.97294 410.729 -56.2961 1.97294 410.729
852 1 -58.0306 1.96428 412.602 -58.0306 1.96428 412.602
848 1 -59.765 1.95541 414.476 -59.765 1.95541 414.476
306 1 -41.3458 1.99864 403.81 -41.3458 1.99864 403.81
302 1 -43.0801 1.99162 405.681 -43.0801 1.99162 405.681
299 1 -44.8163 1.98496 407.555 -44.8163 1.98496 407.555
583 1 -46.5531 1.9773 409.427 -46.5531 1.9773 409.427
581 1 -48.2906 1.96976 411.299 -48.2906 1.96976 411.299
866 1 -50.0283 1.96284 413.169 -50.0283 1.96284 413.169
880 1 -42.0235 1.95944 413.734 -42.0235 1.95944 413.734
312 1 -37.4563 1.2532 405.742 -37.4563 1.2532 405.742
2 1 -62.1356 0.553884 401.659 -62.1356 0.553884 401.659
13 1 -54.9553 2.7315 403.174 -54.9553 2.7315 403.174
278 1 -56.705 2.73089 405.049 -56.705 2.73089 405.049
275 1 -58.4502 2.72996 406.915 -58.4502 2.72996 406.915
562 1 -60.1835 2.719 408.79 -60.1835 2.719 408.79
559 1 -61.9169 2.70868 410.665 -61.9169 2.70868 410.665
1166 1 -42.4772 3.40913 420.35 -42.4772 3.40913 420.35
889 1 -36.3989 1.22074 413.797 -36.3989 1.22074 413.797
28 1 -45.2301 2.7473 401.909 -45.2301 2.7473 401.909
296 1 -46.9707 2.73938 403.75 -46.9707 2.73938 403.75
292 1 -48.7051 2.73163 405.619 -48.7051 2.73163 405.619
289 1 -50.4405 2.72139 407.492 -50.4405 2.72139 407.492
574 1 -52.1792 2.71448 409.362 -52.1792 2.71448 409.362
572 1 -53.9176 2.70849 411.231 -53.9176 2.70849 411.231
856 1 -55.6533 2.70082 413.103 -55.6533 2.70082 413.103
303 1 -42.4384 2.72014 408.054 -42.4384 2.72014 408.054
587 1 -44.1749 2.71289 409.927 -44.1749 2.71289 409.927
584 1 -45.9119 2.70554 411.799 -45.9119 2.70554 411.799
870 1 -47.6493 2.69848 413.67 -47.6493 2.69848 413.67
6 1 -59.729 1.27852 402.174 -59.729 1.27852 402.174
270 1 -61.4743 1.26969 404.028 -61.4743 1.26969 404.028
267 1 -63.2004 1.25213 405.913 -63.2004 1.25213 405.913
890 1 -35.7574 1.94911 416.169 -35.7574 1.94911 416.169
18 1 -51.7145 1.25374 402.756 -51.7145 1.25374 402.756
284 1 -53.4533 1.25171 404.623 -53.4533 1.25171 404.623
281 1 -55.1974 1.24836 406.489 -55.1974 1.24836 406.489
567 1 -56.9388 1.24566 408.355 -56.9388 1.24566 408.355
564 1 -58.6736 1.23698 410.228 -58.6736 1.23698 410.228
561 1 -60.4074 1.22746 412.102 -60.4074 1.22746 412.102
844 1 -62.1419 1.21861 413.977 -62.1419 1.21861 413.977
33 1 -42.0017 1.2651 401.453 -42.0017 1.2651 401.453
30 1 -43.7256 1.25849 403.305 -43.7256 1.25849 403.305
298 1 -45.4585 1.25729 405.182 -45.4585 1.25729 405.182
295 1 -47.1948 1.24968 407.056 -47.1948 1.24968 407.056
580 1 -48.9317 1.24082 408.928 -48.9317 1.24082 408.928
577 1 -50.6696 1.23367 410.798 -50.6696 1.23367 410.798
862 1 -52.4072 1.22704 412.668 -52.4072 1.22704 412.668
590 1 -42.6649 1.23113 411.362 -42.6649 1.23113 411.362
876 1 -44.4019 1.22384 413.234 -44.4019 1.22384 413.234
1163 1 -43.9873 0.463433 418.914 -43.9873 0.463433 418.914
1153 1 -50.4799 3.41181 419.786 -50.4799 3.41181 419.786
311 1 -38.3231 3.46413 406.682 -38.3231 3.46413 406.682
42 1 -36.3776 0.525882 401.515 -36.3776 0.525882 401.515
1135 1 -61.7249 0.45731 419.66 -61.7249 0.45731 419.66
1171 1 -39.2306 1.93461 419.914 -39.2306 1.93461 419.914
1139 1 -59.3476 1.19393 420.16 -59.3476 1.19393 420.16
601 1 -36.1723 2.70992 410.488 -36.1723 2.70992 410.488
313 1 -36.5849 3.47264 404.808 -36.5849 3.47264 404.808
858 1 -54.1431 1.21933 414.54 -54.1431 1.21933 414.54
868 1 -48.5179 0.481267 414.606 -48.5179 0.481267 414.606
1147 1 -54.3679 4.157 417.849 -54.3679 4.157 417.849
843 1 -63.0093 3.42811 414.914 -63.0093 3.42811 414.914
593 1 -40.2867 1.96674 411.862 -40.2867 1.96674 411.862
308 1 -39.8337 0.518066 405.243 -39.8337 0.518066 405.243
861 1 -52.6328 4.16532 415.977 -52.6328 4.16532 415.977
1158 1 -47.2339 1.93788 419.35 -47.2339 1.93788 419.35
884 1 -39.6453 2.69508 414.234 -39.6453 2.69508 414.234
881 1 -41.3821 2.68786 416.106 -41.3821 2.68786 416.106
885 1 -39.0038 3.42349 416.606 -39.0038 3.42349 416.606
859 1 -53.5004 1.94747 416.913 -53.5004 1.94747 416.913
596 1 -38.5502 1.97414 409.989 -38.5502 1.97414 409.989
879 1 -42.2505 0.470567 417.042 -42.2505 0.470567 417.042
1172 1 -38.3623 4.15194 418.978 -38.3623 4.15194 418.978
1154 1 -49.6121 1.20206 418.85 -49.6121 1.20206 418.85
887 1 -38.1355 1.21339 415.669 -38.1355 1.21339 415.669
597 1 -37.9087 2.70243 412.361 -37.9087 2.70243 412.361
1161 1 -45.4974 1.94521 417.478 -45.4974 1.94521 417.478
1138 1 -59.9899 0.465623 417.787 -59.9899 0.465623 417.787
1149 1 -52.8578 2.67556 419.286 -52.8578 2.67556 419.286
41 1 -37.2266 2.73876 402.453 -37.2266 2.73876 402.453
888 1 -37.2672 3.43077 414.733 -37.2672 3.43077 414.733
1165 1 -43.1189 2.68074 417.978 -43.1189 2.68074 417.978
1141 1 -57.6127 1.20235 418.286 -57.6127 1.20235 418.286
1145 1 -55.2354 1.93904 418.786 -55.2354 1.93904 418.786
600 1 -36.8143 1.98162 408.116 -36.8143 1.98162 408.116
1148 1 -53.7253 0.45766 420.222 -53.7253 0.45766 420.222
882 1 -41.1551 4.17678 412.798 -41.1551 4.17678 412.798
1157 1 -48.1019 4.14778 420.286 -48.1019 4.14778 420.286
1144 1 -56.1028 4.14853 419.723 -56.1028 4.14853 419.723
602 1 -35.304 0.500099 409.552 -35.304 0.500099 409.552
1131 1 -63.4599 0.449156 421.534 -63.4599 0.449156 421.534
1755 1 -35.7955 2.6382 428.466 -35.7955 2.6382 428.466
1460 1 -40.3253 2.65574 424.158 -40.3253 2.65574 424.158
2308 1 -50.0955 3.337 437.769 -50.0955 3.337 437.769
2316 1 -45.1155 1.87144 435.458 -45.1155 1.87144 435.458
2312 1 -47.7181 4.0732 438.268 -47.7181 4.0732 438.268
1464 1 -37.9472 3.39145 424.658 -37.9472 3.39145 424.658
1461 1 -39.4572 0.445683 423.222 -39.4572 0.445683 423.222
2039 1 -38.6251 3.35138 434.584 -38.6251 3.35138 434.584
2613 1 -40.5858 1.85416 439.766 -40.5858 1.85416 439.766
1467 1 -35.5692 4.12718 425.158 -35.5692 4.12718 425.158
2603 1 -46.2082 2.59165 439.704 -46.2082 2.59165 439.704
1443 1 -49.8374 4.13987 422.159 -49.8374 4.13987 422.159
1748 1 -39.6834 3.38406 426.53 -39.6834 3.38406 426.53
2023 1 -47.493 1.1353 434.959 -47.493 1.1353 434.959
2310 1 -48.5856 1.85548 439.205 -48.5856 1.85548 439.205
1151 1 -51.3476 1.19403 420.722 -51.3476 1.19403 420.722
2303 1 -53.3404 0.382971 438.206 -53.3404 0.382971 438.206
2299 1 -55.7178 4.07408 437.707 -55.7178 4.07408 437.707
2033 1 -41.8703 0.397741 435.021 -41.8703 0.397741 435.021
1433 1 -55.4603 0.449283 422.096 -55.4603 0.449283 422.096
1430 1 -57.1953 0.440949 423.969 -57.1953 0.440949 423.969
1426 1 -58.9303 0.432686 425.843 -58.9303 0.432686 425.843
1713 1 -60.6652 0.424491 427.716 -60.6652 0.424491 427.716
1710 1 -62.4002 0.416355 429.59 -62.4002 0.416355 429.59
2330 1 -36.4731 2.59809 438.393 -36.4731 2.59809 438.393
1160 1 -45.7236 0.456096 420.786 -45.7236 0.456096 420.786
1447 1 -47.4595 0.44843 422.658 -47.4595 0.44843 422.658
1444 1 -49.195 0.440486 424.531 -49.195 0.440486 424.531
1730 1 -50.9302 0.432385 426.404 -50.9302 0.432385 426.404
1727 1 -52.6653 0.424221 428.278 -52.6653 0.424221 428.278
1724 1 -54.4004 0.416043 430.151 -54.4004 0.416043 430.151
2008 1 -56.1353 0.407875 432.024 -56.1353 0.407875 432.024
2006 1 -57.8703 0.399725 433.898 -57.8703 0.399725 433.898
1458 1 -41.1933 0.438311 425.094 -41.1933 0.438311 425.094
1743 1 -42.9292 0.430749 426.967 -42.9292 0.430749 426.967
1740 1 -44.6648 0.423 428.84 -44.6648 0.423 428.84
2026 1 -46.4002 0.415108 430.713 -46.4002 0.415108 430.713
2022 1 -48.1354 0.407125 432.586 -48.1354 0.407125 432.586
2019 1 -49.8705 0.399091 434.459 -49.8705 0.399091 434.459
2309 1 -49.228 1.12728 436.832 -49.228 1.12728 436.832
1137 1 -60.2151 3.4035 421.097 -60.2151 3.4035 421.097
1421 1 -61.9501 3.39529 422.97 -61.9501 3.39529 422.97
1439 1 -52.2152 3.40364 421.659 -52.2152 3.40364 421.659
1435 1 -53.9503 3.39535 423.532 -53.9503 3.39535 423.532
1432 1 -55.6853 3.38706 425.405 -55.6853 3.38706 425.405
1719 1 -57.4203 3.37881 427.279 -57.4203 3.37881 427.279
1716 1 -59.1553 3.37061 429.152 -59.1553 3.37061 429.152
2001 1 -60.8903 3.36245 431.026 -60.8903 3.36245 431.026
1998 1 -62.6252 3.35433 432.899 -62.6252 3.35433 432.899
2323 1 -40.3605 3.3436 436.457 -40.3605 3.3436 436.457
1453 1 -44.2135 3.40178 422.222 -44.2135 3.40178 422.222
1450 1 -45.9494 3.39417 424.095 -45.9494 3.39417 424.095
1446 1 -47.6849 3.3863 425.967 -47.6849 3.3863 425.967
1732 1 -49.4202 3.37829 427.84 -49.4202 3.37829 427.84
1729 1 -51.1553 3.37019 429.714 -51.1553 3.37019 429.714
2014 1 -52.8904 3.36206 431.587 -52.8904 3.36206 431.587
2011 1 -54.6254 3.35393 433.46 -54.6254 3.35393 433.46
1745 1 -41.4192 3.37652 428.403 -41.4192 3.37652 428.403
1742 1 -43.1548 3.3688 430.276 -43.1548 3.3688 430.276
2028 1 -44.8902 3.36095 432.149 -44.8902 3.36095 432.149
2025 1 -46.6254 3.35301 434.022 -46.6254 3.35301 434.022
1427 1 -58.7052 1.92224 422.533 -58.7052 1.92224 422.533
1424 1 -60.4402 1.91399 424.406 -60.4402 1.91399 424.406
1711 1 -62.1752 1.90583 426.28 -62.1752 1.90583 426.28
2322 1 -41.2281 1.12595 437.394 -41.2281 1.12595 437.394
1750 1 -38.1734 1.90239 427.966 -38.1734 1.90239 427.966
1155 1 -48.9697 1.93014 421.222 -48.9697 1.93014 421.222
1441 1 -50.7051 1.92209 423.095 -50.7051 1.92209 423.095
1438 1 -52.4403 1.9139 424.968 -52.4403 1.9139 424.968
1725 1 -54.1753 1.90567 426.841 -54.1753 1.90567 426.841
1722 1 -55.9103 1.89744 428.715 -55.9103 1.89744 428.715
1718 1 -57.6453 1.88925 430.588 -57.6453 1.88925 430.588
2003 1 -59.3803 1.88109 432.462 -59.3803 1.88109 432.462
2000 1 -61.1152 1.87296 434.335 -61.1152 1.87296 434.335
1459 1 -40.9671 1.92739 421.786 -40.9671 1.92739 421.786
1455 1 -42.7034 1.92003 423.658 -42.7034 1.92003 423.658
1452 1 -44.4393 1.91245 425.531 -44.4393 1.91245 425.531
1737 1 -46.1748 1.90465 427.403 -46.1748 1.90465 427.403
1735 1 -47.9102 1.89671 429.277 -47.9102 1.89671 429.277
2020 1 -49.6453 1.88867 431.15 -49.6453 1.88867 431.15
2017 1 -51.3804 1.88059 433.023 -51.3804 1.88059 433.023
2034 1 -41.6449 1.88716 431.712 -41.6449 1.88716 431.712
2031 1 -43.3803 1.87935 433.585 -43.3803 1.87935 433.585
2029 1 -44.2479 4.08913 434.521 -44.2479 4.08913 434.521
1146 1 -54.5928 2.6672 421.159 -54.5928 2.6672 421.159
1431 1 -56.3278 2.65883 423.032 -56.3278 2.65883 423.032
1428 1 -58.0628 2.65053 424.906 -58.0628 2.65053 424.906
1715 1 -59.7977 2.64231 426.779 -59.7977 2.64231 426.779
1712 1 -61.5327 2.63414 428.653 -61.5327 2.63414 428.653
1708 1 -63.2677 2.62603 430.526 -63.2677 2.62603 430.526
1747 1 -39.9093 1.89485 429.839 -39.9093 1.89485 429.839
1449 1 -46.5916 2.66603 421.722 -46.5916 2.66603 421.722
1445 1 -48.3273 2.65821 423.595 -48.3273 2.65821 423.595
1442 1 -50.0626 2.65017 425.468 -50.0626 2.65017 425.468
1728 1 -51.7978 2.64203 427.341 -51.7978 2.64203 427.341
1726 1 -53.5329 2.63386 429.214 -53.5329 2.63386 429.214
2010 1 -55.2679 2.62568 431.088 -55.2679 2.62568 431.088
2007 1 -57.0028 2.61752 432.961 -57.0028 2.61752 432.961
1456 1 -42.0613 2.64828 426.03 -42.0613 2.64828 426.03
1741 1 -43.797 2.64062 427.903 -43.797 2.64062 427.903
1738 1 -45.5325 2.63279 429.776 -45.5325 2.63279 429.776
2024 1 -47.2678 2.62485 431.649 -47.2678 2.62485 431.649
2021 1 -49.0029 2.61684 433.522 -49.0029 2.61684 433.522
2035 1 -41.0027 2.61538 434.084 -41.0027 2.61538 434.084
1754 1 -36.4373 1.90979 426.094 -36.4373 1.90979 426.094
1423 1 -61.0825 1.18566 422.034 -61.0825 1.18566 422.034
1420 1 -62.8176 1.1775 423.907 -62.8176 1.1775 423.907
2044 1 -35.3797 1.87747 434.147 -35.3797 1.87747 434.147
1437 1 -53.0828 1.18577 422.595 -53.0828 1.18577 422.595
1434 1 -54.8178 1.17748 424.469 -54.8178 1.17748 424.469
1721 1 -56.5528 1.1692 426.342 -56.5528 1.1692 426.342
1717 1 -58.2878 1.16097 428.215 -58.2878 1.16097 428.215
1714 1 -60.0228 1.1528 430.089 -60.0228 1.1528 430.089
1999 1 -61.7577 1.14466 431.962 -61.7577 1.14466 431.962
1997 1 -63.4927 1.13656 433.836 -63.4927 1.13656 433.836
1164 1 -43.3454 1.19176 421.286 -43.3454 1.19176 421.286
1451 1 -45.0815 1.18428 423.158 -45.0815 1.18428 423.158
1448 1 -46.8172 1.17653 425.031 -46.8172 1.17653 425.031
1734 1 -48.5526 1.16858 426.904 -48.5526 1.16858 426.904
1731 1 -50.2878 1.16052 428.777 -50.2878 1.16052 428.777
2016 1 -52.0229 1.1524 430.65 -52.0229 1.1524 430.65
2012 1 -53.7579 1.14427 432.524 -53.7579 1.14427 432.524
2009 1 -55.4928 1.13613 434.397 -55.4928 1.13613 434.397
1746 1 -40.5513 1.16659 427.467 -40.5513 1.16659 427.467
1744 1 -42.287 1.15895 429.339 -42.287 1.15895 429.339
2030 1 -44.0225 1.15117 431.212 -44.0225 1.15117 431.212
2027 1 -45.7578 1.14327 433.085 -45.7578 1.14327 433.085
2325 1 -39.4928 1.13378 435.521 -39.4928 1.13378 435.521
1749 1 -39.0414 4.11237 428.903 -39.0414 4.11237 428.903
1425 1 -59.5727 4.13183 423.47 -59.5727 4.13183 423.47
1736 1 -47.0425 4.11442 428.34 -47.0425 4.11442 428.34
1142 1 -56.9703 1.93059 420.659 -56.9703 1.93059 420.659
1720 1 -56.7778 4.10707 429.652 -56.7778 4.10707 429.652
2005 1 -58.5128 4.09889 431.525 -58.5128 4.09889 431.525
2002 1 -60.2477 4.09075 433.398 -60.2477 4.09075 433.398
1169 1 -40.0989 4.14474 420.85 -40.0989 4.14474 420.85
1723 1 -55.0428 4.11528 427.778 -55.0428 4.11528 427.778
1440 1 -51.5727 4.13173 424.032 -51.5727 4.13173 424.032
1733 1 -48.7778 4.10642 430.213 -48.7778 4.10642 430.213
2018 1 -50.5129 4.09836 432.086 -50.5129 4.09836 432.086
2015 1 -52.2479 4.09027 433.96 -52.2479 4.09027 433.96
2036 1 -40.7771 4.10475 430.775 -40.7771 4.10475 430.775
2032 1 -42.5126 4.09699 432.648 -42.5126 4.09699 432.648
2326 1 -38.8506 1.86202 437.893 -38.8506 1.86202 437.893
1752 1 -37.3054 4.11984 427.03 -37.3054 4.11984 427.03
1457 1 -41.8353 4.13747 422.722 -41.8353 4.13747 422.722
2043 1 -36.0216 1.14911 431.775 -36.0216 1.14911 431.775
2286 1 -62.8501 1.86485 436.209 -62.8501 1.86485 436.209
2319 1 -42.9632 1.11804 439.267 -42.9632 1.11804 439.267
1436 1 -53.3078 4.12351 425.905 -53.3078 4.12351 425.905
1422 1 -61.3077 4.12362 425.343 -61.3077 4.12362 425.343
1173 1 -37.7207 0.452933 421.35 -37.7207 0.452933 421.35
2293 1 -58.9626 1.11991 438.144 -58.9626 1.11991 438.144
2289 1 -61.34 0.383486 437.645 -61.34 0.383486 437.645
2295 1 -57.4526 4.066 439.58 -57.4526 4.066 439.58
1465 1 -37.0791 1.18137 423.722 -37.0791 1.18137 423.722
2315 1 -45.3407 0.381912 438.767 -45.3407 0.381912 438.767
2331 1 -36.2475 4.08737 435.084 -36.2475 4.08737 435.084
2297 1 -56.5852 1.85631 438.643 -56.5852 1.85631 438.643
2324 1 -39.7182 4.07182 438.83 -39.7182 4.07182 438.83
2306 1 -50.963 1.11925 438.705 -50.963 1.11925 438.705
2285 1 -63.0749 0.375391 439.518 -63.0749 0.375391 439.518
1462 1 -38.8153 1.17405 425.594 -38.8153 1.17405 425.594
1751 1 -37.5315 2.63073 430.339 -37.5315 2.63073 430.339
2329 1 -37.1152 1.8698 436.02 -37.1152 1.8698 436.02
2042 1 -36.8895 3.35905 432.711 -36.8895 3.35905 432.711
2041 1 -37.7573 1.1415 433.648 -37.7573 1.1415 433.648
2593 1 -51.8304 3.32896 439.642 -51.8304 3.32896 439.642
2328 1 -37.3408 0.380458 439.329 -37.3408 0.380458 439.329
2301 1 -54.2078 2.59267 439.143 -54.2078 2.59267 439.143
1466 1 -36.2109 3.39873 422.786 -36.2109 3.39873 422.786
2298 1 -56.3603 3.3458 435.334 -56.3603 3.3458 435.334
2321 1 -42.0957 3.33573 438.33 -42.0957 3.33573 438.33
2313 1 -46.8506 1.86347 437.331 -46.8506 1.86347 437.331
2294 1 -58.0952 3.33769 437.207 -58.0952 3.33769 437.207
2304 1 -52.4729 2.60073 437.269 -52.4729 2.60073 437.269
2300 1 -54.8503 1.8644 436.77 -54.8503 1.8644 436.77
2290 1 -60.4726 2.60127 436.708 -60.4726 2.60127 436.708
2318 1 -43.6056 0.389857 436.894 -43.6056 0.389857 436.894
2327 1 -37.9829 4.07965 436.957 -37.9829 4.07965 436.957
2004 1 -58.7377 2.60938 434.835 -58.7377 2.60938 434.835
2013 1 -53.1154 1.87249 434.896 -53.1154 1.87249 434.896
2288 1 -61.9826 4.08263 435.272 -61.9826 4.08263 435.272
2037 1 -40.135 0.405535 433.148 -40.135 0.405535 433.148
1739 1 -45.3071 4.1223 426.467 -45.3071 4.1223 426.467
1753 1 -36.6635 0.420753 429.403 -36.6635 0.420753 429.403
2307 1 -50.738 2.60879 435.396 -50.738 2.60879 435.396
2314 1 -45.983 4.08119 436.395 -45.983 4.08119 436.395
2040 1 -38.3994 0.413211 431.275 -38.3994 0.413211 431.275
2320 1 -42.738 2.60753 435.958 -42.738 2.60753 435.958
2292 1 -59.6052 0.391596 435.771 -59.6052 0.391596 435.771
2311 1 -48.3605 3.34502 435.895 -48.3605 3.34502 435.895
2302 1 -53.9829 4.08217 435.833 -53.9829 4.08217 435.833
2296 1 -57.2277 1.12801 436.271 -57.2277 1.12801 436.271
1463 1 -38.589 2.66304 422.286 -38.589 2.66304 422.286
2287 1 -62.2075 2.59316 438.582 -62.2075 2.59316 438.582
2291 1 -59.83 3.32959 439.081 -59.83 3.32959 439.081
2317 1 -44.4731 2.59962 437.831 -44.4731 2.59962 437.831
2038 1 -39.2672 2.62312 432.212 -39.2672 2.62312 432.212
2305 1 -51.6054 0.391033 436.333 -51.6054 0.391033 436.333
2332 1 -35.6054 0.388237 437.456 -35.6054 0.388237 437.456
1709 1 -63.0427 4.1155 427.217 -63.0427 4.1155 427.217
1468 1 -35.3427 1.18863 421.849 -35.3427 1.18863 421.849
1454 1 -43.5714 4.13 424.594 -43.5714 4.13 424.594
1429 1 -57.8377 4.14013 421.596 -57.8377 4.14013 421.596
1133 1 -62.5924 2.66694 420.597 -62.5924 2.66694 420.597
1175 1 -36.8525 2.67027 420.413 -36.8525 2.67027 420.413
2616 1 -38.4336 1.10082 443.575 -38.4336 1.10082 443.575
2901 1 -40.1686 1.09287 445.448 -40.1686 1.09287 445.448
2907 1 -36.9238 4.04675 445.011 -36.9238 4.04675 445.011
3194 1 -38.0162 0.339535 449.257 -38.0162 0.339535 449.257
2587 1 -55.0752 0.374918 440.079 -55.0752 0.374918 440.079
2597 1 -49.453 4.0652 440.141 -49.453 4.0652 440.141
2584 1 -56.81 0.36688 441.953 -56.81 0.36688 441.953
2581 1 -58.5448 0.358856 443.826 -58.5448 0.358856 443.826
2868 1 -60.2794 0.350836 445.7 -60.2794 0.350836 445.7
2865 1 -62.0141 0.342805 447.573 -62.0141 0.342805 447.573
2601 1 -47.0756 0.373932 440.641 -47.0756 0.373932 440.641
2598 1 -48.8105 0.365939 442.514 -48.8105 0.365939 442.514
2885 1 -50.5453 0.357958 444.388 -50.5453 0.357958 444.388
2882 1 -52.2801 0.350011 446.261 -52.2801 0.350011 446.261
2879 1 -54.0148 0.342111 448.135 -54.0148 0.342111 448.135
2612 1 -40.811 0.36467 443.076 -40.811 0.36467 443.076
2898 1 -42.5459 0.356702 444.949 -42.5459 0.356702 444.949
2895 1 -44.2806 0.348714 446.822 -44.2806 0.348714 446.822
3180 1 -46.0153 0.340737 448.696 -46.0153 0.340737 448.696
2576 1 -61.5648 3.3215 440.954 -61.5648 3.3215 440.954
2574 1 -63.2995 3.31341 442.828 -63.2995 3.31341 442.828
2589 1 -53.5652 3.32094 441.516 -53.5652 3.32094 441.516
2586 1 -55.3 3.31294 443.389 -55.3 3.31294 443.389
2874 1 -57.0348 3.30497 445.263 -57.0348 3.30497 445.263
2871 1 -58.7695 3.29701 447.136 -58.7695 3.29701 447.136
3155 1 -60.5041 3.28905 449.01 -60.5041 3.28905 449.01
2607 1 -43.8308 3.3278 440.203 -43.8308 3.3278 440.203
2604 1 -45.5657 3.31983 442.077 -45.5657 3.31983 442.077
2600 1 -47.3006 3.31184 443.95 -47.3006 3.31184 443.95
2887 1 -49.0353 3.30386 445.824 -49.0353 3.30386 445.824
2884 1 -50.7701 3.29592 447.697 -50.7701 3.29592 447.697
3168 1 -52.5048 3.28802 449.571 -52.5048 3.28802 449.571
2900 1 -41.036 3.3026 446.385 -41.036 3.3026 446.385
2897 1 -42.7707 3.29462 448.258 -42.7707 3.29462 448.258
2582 1 -58.32 1.84824 440.517 -58.32 1.84824 440.517
2579 1 -60.0548 1.84018 442.39 -60.0548 1.84018 442.39
2866 1 -61.7895 1.83211 444.264 -61.7895 1.83211 444.264
2578 1 -60.6974 1.11182 440.018 -60.6974 1.11182 440.018
2595 1 -50.3205 1.84747 441.078 -50.3205 1.84747 441.078
2592 1 -52.0553 1.83947 442.952 -52.0553 1.83947 442.952
2880 1 -53.7901 1.83151 444.825 -53.7901 1.83151 444.825
2877 1 -55.5248 1.82358 446.699 -55.5248 1.82358 446.699
2873 1 -57.2595 1.81568 448.572 -57.2595 1.81568 448.572
2609 1 -42.3209 1.84623 441.64 -42.3209 1.84623 441.64
2606 1 -44.0558 1.83826 443.513 -44.0558 1.83826 443.513
2892 1 -45.7906 1.83027 445.386 -45.7906 1.83027 445.386
2890 1 -47.5253 1.8223 447.26 -47.5253 1.8223 447.26
3174 1 -49.26 1.81435 449.133 -49.26 1.81435 449.133
2618 1 -37.5661 3.31851 442.639 -37.5661 3.31851 442.639
2585 1 -55.9426 2.58462 441.016 -55.9426 2.58462 441.016
2583 1 -57.6774 2.57659 442.89 -57.6774 2.57659 442.89
2870 1 -59.4121 2.56857 444.763 -59.4121 2.56857 444.763
2867 1 -61.1468 2.56055 446.637 -61.1468 2.56055 446.637
2863 1 -62.8814 2.5525 448.51 -62.8814 2.5525 448.51
2599 1 -47.9431 2.58366 441.577 -47.9431 2.58366 441.577
2596 1 -49.6779 2.57567 443.451 -49.6779 2.57567 443.451
2883 1 -51.4127 2.56771 445.324 -51.4127 2.56771 445.324
2881 1 -53.1475 2.55978 447.198 -53.1475 2.55978 447.198
3164 1 -54.8822 2.55191 449.072 -54.8822 2.55191 449.072
2610 1 -41.6784 2.57442 444.012 -41.6784 2.57442 444.012
2896 1 -43.4133 2.56644 445.886 -43.4133 2.56644 445.886
2893 1 -45.148 2.55845 447.759 -45.148 2.55845 447.759
3178 1 -46.8826 2.55049 449.632 -46.8826 2.55049 449.632
2575 1 -62.4322 1.10373 441.891 -62.4322 1.10373 441.891
2591 1 -52.6978 1.11123 440.579 -52.6978 1.11123 440.579
2588 1 -54.4326 1.10321 442.452 -54.4326 1.10321 442.452
2876 1 -56.1674 1.09523 444.326 -56.1674 1.09523 444.326
2872 1 -57.9021 1.08726 446.199 -57.9021 1.08726 446.199
2869 1 -59.6368 1.07931 448.073 -59.6368 1.07931 448.073
2605 1 -44.6982 1.11009 441.14 -44.6982 1.11009 441.14
2602 1 -46.4331 1.10211 443.013 -46.4331 1.10211 443.013
2889 1 -48.168 1.09412 444.887 -48.168 1.09412 444.887
2886 1 -49.9027 1.08616 446.76 -49.9027 1.08616 446.76
3170 1 -51.6374 1.07824 448.634 -51.6374 1.07824 448.634
2899 1 -41.9033 1.08488 447.322 -41.9033 1.08488 447.322
3184 1 -43.638 1.0769 449.195 -43.638 1.0769 449.195
2580 1 -59.1874 4.05793 441.454 -59.1874 4.05793 441.454
2577 1 -60.9221 4.04987 443.327 -60.9221 4.04987 443.327
2864 1 -62.6568 4.0418 445.201 -62.6568 4.0418 445.201
2862 1 -63.5241 1.82404 446.137 -63.5241 1.82404 446.137
2594 1 -51.1879 4.05719 442.015 -51.1879 4.05719 442.015
2590 1 -52.9227 4.04921 443.888 -52.9227 4.04921 443.888
2878 1 -54.6574 4.04126 445.762 -54.6574 4.04126 445.762
2875 1 -56.3922 4.03335 447.635 -56.3922 4.03335 447.635
3159 1 -58.1268 4.02548 449.509 -58.1268 4.02548 449.509
2611 1 -41.4533 4.06393 440.703 -41.4533 4.06393 440.703
2608 1 -43.1883 4.05598 442.576 -43.1883 4.05598 442.576
2894 1 -44.9232 4.048 444.45 -44.9232 4.048 444.45
2891 1 -46.658 4.04001 446.323 -46.658 4.04001 446.323
2888 1 -48.3927 4.03205 448.196 -48.3927 4.03205 448.196
2904 1 -38.6587 4.03878 446.885 -38.6587 4.03878 446.885
2621 1 -35.831 3.32637 440.766 -35.831 3.32637 440.766
2617 1 -38.2084 2.59026 440.266 -38.2084 2.59026 440.266
2614 1 -39.9435 2.58237 442.139 -39.9435 2.58237 442.139
2908 1 -36.2815 0.347531 447.384 -36.2815 0.347531 447.384
2619 1 -36.6986 1.10872 441.702 -36.6986 1.10872 441.702
2906 1 -37.1489 2.55726 448.321 -37.1489 2.55726 448.321
2905 1 -37.7913 1.82904 445.948 -37.7913 1.82904 445.948
2620 1 -36.0563 1.83698 444.075 -36.0563 1.83698 444.075
3190 1 -40.3934 4.03079 448.758 -40.3934 4.03079 448.758
2902 1 -39.5261 1.82106 447.821 -39.5261 1.82106 447.821
2903 1 -39.3011 3.31058 444.512 -39.3011 3.31058 444.512
2615 1 -39.076 0.372595 441.202 -39.076 0.372595 441.202
2909 1 -35.4141 2.56524 446.448 -35.4141 2.56524 446.448
14 1 -54.7482 4.25506 399.996 -54.7482 4.25506 399.996
7 1 -59.4366 2.75227 399.087 -59.4366 2.75227 399.087
25 1 -46.7422 4.24621 400.47 -46.7422 4.24621 400.47
38 1 -38.7318 4.20318 400.985 -38.7318 4.20318 400.985
23 1 -48.4798 4.22221 402.337 -48.4798 4.22221 402.337
287 1 -51.9493 4.19867 406.052 -51.9493 4.19867 406.052
878 1 -42.892 4.16956 414.67 -42.892 4.16956 414.67
579 1 -49.1594 4.18005 412.234 -49.1594 4.18005 412.234
585 1 -45.6847 4.19495 408.492 -45.6847 4.19495 408.492
290 1 -50.2165 4.20729 404.181 -50.2165 4.20729 404.181
11 1 -56.4727 4.20415 401.774 -56.4727 4.20415 401.774
595 1 -39.4184 4.18416 410.926 -39.4184 4.18416 410.926
1134 1 -62.3671 4.15642 417.287 -62.3671 4.15642 417.287
283 1 -53.6885 4.1944 407.923 -53.6885 4.1944 407.923
582 1 -47.4218 4.18719 410.363 -47.4218 4.18719 410.363
276 1 -58.221 4.21611 403.627 -58.221 4.21611 403.627
569 1 -55.4279 4.19009 409.793 -55.4279 4.19009 409.793
847 1 -60.6323 4.16482 415.413 -60.6323 4.16482 415.413
556 1 -63.4263 4.18953 409.229 -63.4263 4.18953 409.229
272 1 -59.9653 4.21454 405.477 -59.9653 4.21454 405.477
3 1 -61.2595 2.76515 400.769 -61.2595 2.76515 400.769
35 1 -40.4707 4.2187 402.863 -40.4707 4.2187 402.863
598 1 -37.6819 4.19178 409.053 -37.6819 4.19178 409.053
850 1 -58.8977 4.17353 413.539 -58.8977 4.17353 413.539