LAMMPS (23 Jun 2022 - Update 4)
OMP_NUM_THREADS environment is not set. Defaulting to 1 thread. (src/src/comm.cpp:98)
  using 1 OpenMP thread(s) per MPI task

# ------------------------ INITIALIZATION ----------------------------
processors    * * *
units         metal
dimension    3
boundary    p    p    p
atom_style   atomic
atom_modify map yes


box        tilt large
#--------------------------- LAMMPS Data File--------------------------
#read_data    input_data/thicker_domain.lmp
read_data    input_data/4b_step.lmp
Reading data file ...
  orthogonal box = (-64.340989 0 380) to (107.36002 4.4274527 500)
  1 by 1 by 1 MPI processor grid
  reading atoms ...
  4630 atoms
  reading velocities ...
  4630 velocities
  read_data CPU = 0.035 seconds
change_box    all triclinic
Changing box ...
  triclinic box = (-64.340989 0 380) to (107.36002 4.4274527 500) with tilt (0 0 0)
reset_atom_ids sort yes
Resetting atom IDs ...
Neighbor list info ...
  update every 1 steps, delay 10 steps, check yes
  max neighbors/atom: 2000, page size: 100000
  master list distance cutoff = 0
  ghost atom cutoff = 0
  binsize = 171.70101, bins = 1 1 1
  0 neighbor lists, perpetual/occasional/extra = 0 0 0
WARNING: Communication cutoff is 0.0. No ghost atoms will be generated. Atoms may get lost. (src/src/comm_brick.cpp:210)

#--------------
pair_style    eam/alloy
pair_coeff    * * input_data/Cu_mishin1.eam.alloy Cu
Reading eam/alloy potential file input_data/Cu_mishin1.eam.alloy with DATE: 2007-10-12

#-------------------Various continuation commands----------------------
compute forces all property/atom fx fy fz
compute ids all property/atom id
compute x_check all property/atom x y z
#atom_modify map yes

     change_box all x final -64.3409885018 107.36002035 units box
Changing box ...
  triclinic box = (-64.340989 0 380) to (107.36002 4.4274527 500) with tilt (0 0 0)
    
run 0
WARNING: No fixes with time integration, atoms won't move (src/src/verlet.cpp:60)
Neighbor list info ...
  update every 1 steps, delay 10 steps, check yes
  max neighbors/atom: 2000, page size: 100000
  master list distance cutoff = 7.50679
  ghost atom cutoff = 7.50679
  binsize = 3.753395, bins = 46 2 32
  1 neighbor lists, perpetual/occasional/extra = 1 0 0
  (1) pair eam/alloy, perpetual
      attributes: half, newton on
      pair build: half/bin/newton/tri
      stencil: half/bin/3d/tri
      bin: standard
Per MPI rank memory allocation (min/avg/max) = 8.635 | 8.635 | 8.635 Mbytes
   Step          Temp          E_pair         E_mol          TotEng         Press     
         0   1.1766422e-06 -16242.541      0             -16242.541     -1268.6089    
Loop time of 2.409e-06 on 1 procs for 0 steps with 4630 atoms

166.0% CPU use with 1 MPI tasks x 1 OpenMP threads

MPI task timing breakdown:
Section |  min time  |  avg time  |  max time  |%varavg| %total
---------------------------------------------------------------
Pair    | 0          | 0          | 0          |   0.0 |  0.00
Neigh   | 0          | 0          | 0          |   0.0 |  0.00
Comm    | 0          | 0          | 0          |   0.0 |  0.00
Output  | 0          | 0          | 0          |   0.0 |  0.00
Modify  | 0          | 0          | 0          |   0.0 |  0.00
Other   |            | 2.409e-06  |            |       |100.00

Nlocal:           4630 ave        4630 max        4630 min
Histogram: 1 0 0 0 0 0 0 0 0 0
Nghost:          17169 ave       17169 max       17169 min
Histogram: 1 0 0 0 0 0 0 0 0 0
Neighs:         311478 ave      311478 max      311478 min
Histogram: 1 0 0 0 0 0 0 0 0 0

Total # of neighbors = 311478
Ave neighs/atom = 67.273866
Neighbor list builds = 0
Dangerous builds = 0
min_style cg
minimize 0 1e-5 3000 3000
WARNING: Using 'neigh_modify every 1 delay 0 check yes' setting during minimization (src/src/min.cpp:187)
Per MPI rank memory allocation (min/avg/max) = 10.88 | 10.88 | 10.88 Mbytes
   Step          Temp          E_pair         E_mol          TotEng         Press     
         0   1.1766422e-06 -16242.541      0             -16242.541     -1268.6089    
       275   1.1766422e-06 -16242.561      0             -16242.561     -1255.7372    
Loop time of 5.11568 on 1 procs for 275 steps with 4630 atoms

99.6% CPU use with 1 MPI tasks x 1 OpenMP threads

Minimization stats:
  Stopping criterion = force tolerance
  Energy initial, next-to-last, final = 
     -16242.5406737745  -16242.5609642402  -16242.5609642403
  Force two-norm initial, final = 0.47745039 9.6410391e-06
  Force max component initial, final = 0.1429534 6.212929e-07
  Final line search alpha, max atom move = 1 6.212929e-07
  Iterations, force evaluations = 275 550

MPI task timing breakdown:
Section |  min time  |  avg time  |  max time  |%varavg| %total
---------------------------------------------------------------
Pair    | 5.0157     | 5.0157     | 5.0157     |   0.0 | 98.05
Neigh   | 0          | 0          | 0          |   0.0 |  0.00
Comm    | 0.044998   | 0.044998   | 0.044998   |   0.0 |  0.88
Output  | 0          | 0          | 0          |   0.0 |  0.00
Modify  | 0          | 0          | 0          |   0.0 |  0.00
Other   |            | 0.05498    |            |       |  1.07

Nlocal:           4630 ave        4630 max        4630 min
Histogram: 1 0 0 0 0 0 0 0 0 0
Nghost:          17169 ave       17169 max       17169 min
Histogram: 1 0 0 0 0 0 0 0 0 0
Neighs:         311478 ave      311478 max      311478 min
Histogram: 1 0 0 0 0 0 0 0 0 0

Total # of neighbors = 311478
Ave neighs/atom = 67.273866
Neighbor list builds = 0
Dangerous builds = 0
reset_timestep 0

     change_box all x final -64.2409885018 107.26002035 units box
Changing box ...
  triclinic box = (-64.240989 0 380) to (107.26002 4.4274527 500) with tilt (0 0 0)
    
run 0
WARNING: No fixes with time integration, atoms won't move (src/src/verlet.cpp:60)
Per MPI rank memory allocation (min/avg/max) = 8.635 | 8.635 | 8.635 Mbytes
   Step          Temp          E_pair         E_mol          TotEng         Press     
         0   1.1766422e-06 -16238.026      0             -16238.026     -97.311564    
Loop time of 1.68e-06 on 1 procs for 0 steps with 4630 atoms

238.1% CPU use with 1 MPI tasks x 1 OpenMP threads

MPI task timing breakdown:
Section |  min time  |  avg time  |  max time  |%varavg| %total
---------------------------------------------------------------
Pair    | 0          | 0          | 0          |   0.0 |  0.00
Neigh   | 0          | 0          | 0          |   0.0 |  0.00
Comm    | 0          | 0          | 0          |   0.0 |  0.00
Output  | 0          | 0          | 0          |   0.0 |  0.00
Modify  | 0          | 0          | 0          |   0.0 |  0.00
Other   |            | 1.68e-06   |            |       |100.00

Nlocal:           4630 ave        4630 max        4630 min
Histogram: 1 0 0 0 0 0 0 0 0 0
Nghost:          17192 ave       17192 max       17192 min
Histogram: 1 0 0 0 0 0 0 0 0 0
Neighs:         312072 ave      312072 max      312072 min
Histogram: 1 0 0 0 0 0 0 0 0 0

Total # of neighbors = 312072
Ave neighs/atom = 67.40216
Neighbor list builds = 0
Dangerous builds = 0
min_style cg
minimize 0 1e-5 3000 3000
WARNING: Using 'neigh_modify every 1 delay 0 check yes' setting during minimization (src/src/min.cpp:187)
Per MPI rank memory allocation (min/avg/max) = 10.88 | 10.88 | 10.88 Mbytes
   Step          Temp          E_pair         E_mol          TotEng         Press     
         0   1.1766422e-06 -16238.026      0             -16238.026     -97.311564    
       341   1.1766422e-06 -16242.654      0             -16242.654     -936.89504    
Loop time of 6.58575 on 1 procs for 341 steps with 4630 atoms

99.6% CPU use with 1 MPI tasks x 1 OpenMP threads

Minimization stats:
  Stopping criterion = force tolerance
  Energy initial, next-to-last, final = 
     -16238.0262760372  -16242.6536708895  -16242.6536708897
  Force two-norm initial, final = 9.9051498 9.5624682e-06
  Force max component initial, final = 1.0787286 3.7187752e-07
  Final line search alpha, max atom move = 1 3.7187752e-07
  Iterations, force evaluations = 341 682

MPI task timing breakdown:
Section |  min time  |  avg time  |  max time  |%varavg| %total
---------------------------------------------------------------
Pair    | 6.4554     | 6.4554     | 6.4554     |   0.0 | 98.02
Neigh   | 0          | 0          | 0          |   0.0 |  0.00
Comm    | 0.060531   | 0.060531   | 0.060531   |   0.0 |  0.92
Output  | 0          | 0          | 0          |   0.0 |  0.00
Modify  | 0          | 0          | 0          |   0.0 |  0.00
Other   |            | 0.06984    |            |       |  1.06

Nlocal:           4630 ave        4630 max        4630 min
Histogram: 1 0 0 0 0 0 0 0 0 0
Nghost:          17192 ave       17192 max       17192 min
Histogram: 1 0 0 0 0 0 0 0 0 0
Neighs:         312072 ave      312072 max      312072 min
Histogram: 1 0 0 0 0 0 0 0 0 0

Total # of neighbors = 312072
Ave neighs/atom = 67.40216
Neighbor list builds = 0
Dangerous builds = 0
reset_timestep 0

     change_box all x final -64.2409885018 107.26002035 units box
Changing box ...
  triclinic box = (-64.240989 0 380) to (107.26002 4.4274527 500) with tilt (0 0 0)
    

     change_box all x final -64.21695009646918 107.23598194466918 units box
Changing box ...
  triclinic box = (-64.21695 0 380) to (107.23598 4.4274527 500) with tilt (0 0 0)
    
run 0
WARNING: No fixes with time integration, atoms won't move (src/src/verlet.cpp:60)
Per MPI rank memory allocation (min/avg/max) = 8.635 | 8.635 | 8.635 Mbytes
   Step          Temp          E_pair         E_mol          TotEng         Press     
         0   1.1766422e-06 -16242.668      0             -16242.668     -859.77948    
Loop time of 2.301e-06 on 1 procs for 0 steps with 4630 atoms

478.1% CPU use with 1 MPI tasks x 1 OpenMP threads

MPI task timing breakdown:
Section |  min time  |  avg time  |  max time  |%varavg| %total
---------------------------------------------------------------
Pair    | 0          | 0          | 0          |   0.0 |  0.00
Neigh   | 0          | 0          | 0          |   0.0 |  0.00
Comm    | 0          | 0          | 0          |   0.0 |  0.00
Output  | 0          | 0          | 0          |   0.0 |  0.00
Modify  | 0          | 0          | 0          |   0.0 |  0.00
Other   |            | 2.301e-06  |            |       |100.00

Nlocal:           4630 ave        4630 max        4630 min
Histogram: 1 0 0 0 0 0 0 0 0 0
Nghost:          17169 ave       17169 max       17169 min
Histogram: 1 0 0 0 0 0 0 0 0 0
Neighs:         311475 ave      311475 max      311475 min
Histogram: 1 0 0 0 0 0 0 0 0 0

Total # of neighbors = 311475
Ave neighs/atom = 67.273218
Neighbor list builds = 0
Dangerous builds = 0

     change_box all x final -64.21695009646918 107.23598194466918 units box
Changing box ...
  triclinic box = (-64.21695 0 380) to (107.23598 4.4274527 500) with tilt (0 0 0)
    
run 0
WARNING: No fixes with time integration, atoms won't move (src/src/verlet.cpp:60)
Per MPI rank memory allocation (min/avg/max) = 9.635 | 9.635 | 9.635 Mbytes
   Step          Temp          E_pair         E_mol          TotEng         Press     
         0   1.1766422e-06 -16242.668      0             -16242.668     -859.78258    
Loop time of 3.168e-06 on 1 procs for 0 steps with 4630 atoms

631.3% CPU use with 1 MPI tasks x 1 OpenMP threads

MPI task timing breakdown:
Section |  min time  |  avg time  |  max time  |%varavg| %total
---------------------------------------------------------------
Pair    | 0          | 0          | 0          |   0.0 |  0.00
Neigh   | 0          | 0          | 0          |   0.0 |  0.00
Comm    | 0          | 0          | 0          |   0.0 |  0.00
Output  | 0          | 0          | 0          |   0.0 |  0.00
Modify  | 0          | 0          | 0          |   0.0 |  0.00
Other   |            | 3.168e-06  |            |       |100.00

Nlocal:           4630 ave        4630 max        4630 min
Histogram: 1 0 0 0 0 0 0 0 0 0
Nghost:          17169 ave       17169 max       17169 min
Histogram: 1 0 0 0 0 0 0 0 0 0
Neighs:         311475 ave      311475 max      311475 min
Histogram: 1 0 0 0 0 0 0 0 0 0

Total # of neighbors = 311475
Ave neighs/atom = 67.273218
Neighbor list builds = 0
Dangerous builds = 0

     change_box all x final -64.216950127436 107.235981975636 units box
Changing box ...
  triclinic box = (-64.21695 0 380) to (107.23598 4.4274527 500) with tilt (0 0 0)
    
run 0
WARNING: No fixes with time integration, atoms won't move (src/src/verlet.cpp:60)
Per MPI rank memory allocation (min/avg/max) = 9.635 | 9.635 | 9.635 Mbytes
   Step          Temp          E_pair         E_mol          TotEng         Press     
         0   1.1766422e-06 -16242.668      0             -16242.668     -859.77805    
Loop time of 2.303e-06 on 1 procs for 0 steps with 4630 atoms

607.9% CPU use with 1 MPI tasks x 1 OpenMP threads

MPI task timing breakdown:
Section |  min time  |  avg time  |  max time  |%varavg| %total
---------------------------------------------------------------
Pair    | 0          | 0          | 0          |   0.0 |  0.00
Neigh   | 0          | 0          | 0          |   0.0 |  0.00
Comm    | 0          | 0          | 0          |   0.0 |  0.00
Output  | 0          | 0          | 0          |   0.0 |  0.00
Modify  | 0          | 0          | 0          |   0.0 |  0.00
Other   |            | 2.303e-06  |            |       |100.00

Nlocal:           4630 ave        4630 max        4630 min
Histogram: 1 0 0 0 0 0 0 0 0 0
Nghost:          17169 ave       17169 max       17169 min
Histogram: 1 0 0 0 0 0 0 0 0 0
Neighs:         311475 ave      311475 max      311475 min
Histogram: 1 0 0 0 0 0 0 0 0 0

Total # of neighbors = 311475
Ave neighs/atom = 67.273218
Neighbor list builds = 0
Dangerous builds = 0

     change_box all x final -64.21695019822579 107.23598204642579 units box
Changing box ...
  triclinic box = (-64.21695 0 380) to (107.23598 4.4274527 500) with tilt (0 0 0)
    
run 0
WARNING: No fixes with time integration, atoms won't move (src/src/verlet.cpp:60)
Per MPI rank memory allocation (min/avg/max) = 9.635 | 9.635 | 9.635 Mbytes
   Step          Temp          E_pair         E_mol          TotEng         Press     
         0   1.1766422e-06 -16242.668      0             -16242.668     -859.77962    
Loop time of 2.684e-06 on 1 procs for 0 steps with 4630 atoms

707.9% CPU use with 1 MPI tasks x 1 OpenMP threads

MPI task timing breakdown:
Section |  min time  |  avg time  |  max time  |%varavg| %total
---------------------------------------------------------------
Pair    | 0          | 0          | 0          |   0.0 |  0.00
Neigh   | 0          | 0          | 0          |   0.0 |  0.00
Comm    | 0          | 0          | 0          |   0.0 |  0.00
Output  | 0          | 0          | 0          |   0.0 |  0.00
Modify  | 0          | 0          | 0          |   0.0 |  0.00
Other   |            | 2.684e-06  |            |       |100.00

Nlocal:           4630 ave        4630 max        4630 min
Histogram: 1 0 0 0 0 0 0 0 0 0
Nghost:          17169 ave       17169 max       17169 min
Histogram: 1 0 0 0 0 0 0 0 0 0
Neighs:         311475 ave      311475 max      311475 min
Histogram: 1 0 0 0 0 0 0 0 0 0

Total # of neighbors = 311475
Ave neighs/atom = 67.273218
Neighbor list builds = 0
Dangerous builds = 0

     change_box all x final -64.21695033119312 107.23598217939312 units box
Changing box ...
  triclinic box = (-64.21695 0 380) to (107.23598 4.4274527 500) with tilt (0 0 0)
    
run 0
WARNING: No fixes with time integration, atoms won't move (src/src/verlet.cpp:60)
Per MPI rank memory allocation (min/avg/max) = 9.635 | 9.635 | 9.635 Mbytes
   Step          Temp          E_pair         E_mol          TotEng         Press     
         0   1.1766422e-06 -16242.668      0             -16242.668     -859.78259    
Loop time of 2.647e-06 on 1 procs for 0 steps with 4630 atoms

755.6% CPU use with 1 MPI tasks x 1 OpenMP threads

MPI task timing breakdown:
Section |  min time  |  avg time  |  max time  |%varavg| %total
---------------------------------------------------------------
Pair    | 0          | 0          | 0          |   0.0 |  0.00
Neigh   | 0          | 0          | 0          |   0.0 |  0.00
Comm    | 0          | 0          | 0          |   0.0 |  0.00
Output  | 0          | 0          | 0          |   0.0 |  0.00
Modify  | 0          | 0          | 0          |   0.0 |  0.00
Other   |            | 2.647e-06  |            |       |100.00

Nlocal:           4630 ave        4630 max        4630 min
Histogram: 1 0 0 0 0 0 0 0 0 0
Nghost:          17169 ave       17169 max       17169 min
Histogram: 1 0 0 0 0 0 0 0 0 0
Neighs:         311475 ave      311475 max      311475 min
Histogram: 1 0 0 0 0 0 0 0 0 0

Total # of neighbors = 311475
Ave neighs/atom = 67.273218
Neighbor list builds = 0
Dangerous builds = 0

     change_box all x final -64.21695055037758 107.23598239857758 units box
Changing box ...
  triclinic box = (-64.216951 0 380) to (107.23598 4.4274527 500) with tilt (0 0 0)
    
run 0
WARNING: No fixes with time integration, atoms won't move (src/src/verlet.cpp:60)
Per MPI rank memory allocation (min/avg/max) = 9.635 | 9.635 | 9.635 Mbytes
   Step          Temp          E_pair         E_mol          TotEng         Press     
         0   1.1766422e-06 -16242.668      0             -16242.668     -859.78255    
Loop time of 2.92e-06 on 1 procs for 0 steps with 4630 atoms

650.7% CPU use with 1 MPI tasks x 1 OpenMP threads

MPI task timing breakdown:
Section |  min time  |  avg time  |  max time  |%varavg| %total
---------------------------------------------------------------
Pair    | 0          | 0          | 0          |   0.0 |  0.00
Neigh   | 0          | 0          | 0          |   0.0 |  0.00
Comm    | 0          | 0          | 0          |   0.0 |  0.00
Output  | 0          | 0          | 0          |   0.0 |  0.00
Modify  | 0          | 0          | 0          |   0.0 |  0.00
Other   |            | 2.92e-06   |            |       |100.00

Nlocal:           4630 ave        4630 max        4630 min
Histogram: 1 0 0 0 0 0 0 0 0 0
Nghost:          17169 ave       17169 max       17169 min
Histogram: 1 0 0 0 0 0 0 0 0 0
Neighs:         311475 ave      311475 max      311475 min
Histogram: 1 0 0 0 0 0 0 0 0 0

Total # of neighbors = 311475
Ave neighs/atom = 67.273218
Neighbor list builds = 0
Dangerous builds = 0

     change_box all x final -64.21695071946189 107.23598256766189 units box
Changing box ...
  triclinic box = (-64.216951 0 380) to (107.23598 4.4274527 500) with tilt (0 0 0)
    
run 0
WARNING: No fixes with time integration, atoms won't move (src/src/verlet.cpp:60)
Per MPI rank memory allocation (min/avg/max) = 9.635 | 9.635 | 9.635 Mbytes
   Step          Temp          E_pair         E_mol          TotEng         Press     
         0   1.1766422e-06 -16242.668      0             -16242.668     -859.78492    
Loop time of 2.393e-06 on 1 procs for 0 steps with 4630 atoms

0.0% CPU use with 1 MPI tasks x 1 OpenMP threads

MPI task timing breakdown:
Section |  min time  |  avg time  |  max time  |%varavg| %total
---------------------------------------------------------------
Pair    | 0          | 0          | 0          |   0.0 |  0.00
Neigh   | 0          | 0          | 0          |   0.0 |  0.00
Comm    | 0          | 0          | 0          |   0.0 |  0.00
Output  | 0          | 0          | 0          |   0.0 |  0.00
Modify  | 0          | 0          | 0          |   0.0 |  0.00
Other   |            | 2.393e-06  |            |       |100.00

Nlocal:           4630 ave        4630 max        4630 min
Histogram: 1 0 0 0 0 0 0 0 0 0
Nghost:          17169 ave       17169 max       17169 min
Histogram: 1 0 0 0 0 0 0 0 0 0
Neighs:         311475 ave      311475 max      311475 min
Histogram: 1 0 0 0 0 0 0 0 0 0

Total # of neighbors = 311475
Ave neighs/atom = 67.273218
Neighbor list builds = 0
Dangerous builds = 0

     change_box all x final -64.21695062244173 107.23598247064173 units box
Changing box ...
  triclinic box = (-64.216951 0 380) to (107.23598 4.4274527 500) with tilt (0 0 0)
    
run 0
WARNING: No fixes with time integration, atoms won't move (src/src/verlet.cpp:60)
Per MPI rank memory allocation (min/avg/max) = 9.635 | 9.635 | 9.635 Mbytes
   Step          Temp          E_pair         E_mol          TotEng         Press     
         0   1.1766422e-06 -16242.668      0             -16242.668     -859.78478    
Loop time of 2.705e-06 on 1 procs for 0 steps with 4630 atoms

554.5% CPU use with 1 MPI tasks x 1 OpenMP threads

MPI task timing breakdown:
Section |  min time  |  avg time  |  max time  |%varavg| %total
---------------------------------------------------------------
Pair    | 0          | 0          | 0          |   0.0 |  0.00
Neigh   | 0          | 0          | 0          |   0.0 |  0.00
Comm    | 0          | 0          | 0          |   0.0 |  0.00
Output  | 0          | 0          | 0          |   0.0 |  0.00
Modify  | 0          | 0          | 0          |   0.0 |  0.00
Other   |            | 2.705e-06  |            |       |100.00

Nlocal:           4630 ave        4630 max        4630 min
Histogram: 1 0 0 0 0 0 0 0 0 0
Nghost:          17169 ave       17169 max       17169 min
Histogram: 1 0 0 0 0 0 0 0 0 0
Neighs:         311475 ave      311475 max      311475 min
Histogram: 1 0 0 0 0 0 0 0 0 0

Total # of neighbors = 311475
Ave neighs/atom = 67.273218
Neighbor list builds = 0
Dangerous builds = 0

     change_box all x final -64.2169503843697 107.2359822325697 units box
Changing box ...
  triclinic box = (-64.21695 0 380) to (107.23598 4.4274527 500) with tilt (0 0 0)
    
run 0
WARNING: No fixes with time integration, atoms won't move (src/src/verlet.cpp:60)
Per MPI rank memory allocation (min/avg/max) = 9.635 | 9.635 | 9.635 Mbytes
   Step          Temp          E_pair         E_mol          TotEng         Press     
         0   1.1766422e-06 -16242.668      0             -16242.668     -859.78256    
Loop time of 2.735e-06 on 1 procs for 0 steps with 4630 atoms

694.7% CPU use with 1 MPI tasks x 1 OpenMP threads

MPI task timing breakdown:
Section |  min time  |  avg time  |  max time  |%varavg| %total
---------------------------------------------------------------
Pair    | 0          | 0          | 0          |   0.0 |  0.00
Neigh   | 0          | 0          | 0          |   0.0 |  0.00
Comm    | 0          | 0          | 0          |   0.0 |  0.00
Output  | 0          | 0          | 0          |   0.0 |  0.00
Modify  | 0          | 0          | 0          |   0.0 |  0.00
Other   |            | 2.735e-06  |            |       |100.00

Nlocal:           4630 ave        4630 max        4630 min
Histogram: 1 0 0 0 0 0 0 0 0 0
Nghost:          17169 ave       17169 max       17169 min
Histogram: 1 0 0 0 0 0 0 0 0 0
Neighs:         311475 ave      311475 max      311475 min
Histogram: 1 0 0 0 0 0 0 0 0 0

Total # of neighbors = 311475
Ave neighs/atom = 67.273218
Neighbor list builds = 0
Dangerous builds = 0

     change_box all x final -64.21695022218255 107.23598207038255 units box
Changing box ...
  triclinic box = (-64.21695 0 380) to (107.23598 4.4274527 500) with tilt (0 0 0)
    
run 0
WARNING: No fixes with time integration, atoms won't move (src/src/verlet.cpp:60)
Per MPI rank memory allocation (min/avg/max) = 9.635 | 9.635 | 9.635 Mbytes
   Step          Temp          E_pair         E_mol          TotEng         Press     
         0   1.1766422e-06 -16242.668      0             -16242.668     -859.78029    
Loop time of 2.612e-06 on 1 procs for 0 steps with 4630 atoms

459.4% CPU use with 1 MPI tasks x 1 OpenMP threads

MPI task timing breakdown:
Section |  min time  |  avg time  |  max time  |%varavg| %total
---------------------------------------------------------------
Pair    | 0          | 0          | 0          |   0.0 |  0.00
Neigh   | 0          | 0          | 0          |   0.0 |  0.00
Comm    | 0          | 0          | 0          |   0.0 |  0.00
Output  | 0          | 0          | 0          |   0.0 |  0.00
Modify  | 0          | 0          | 0          |   0.0 |  0.00
Other   |            | 2.612e-06  |            |       |100.00

Nlocal:           4630 ave        4630 max        4630 min
Histogram: 1 0 0 0 0 0 0 0 0 0
Nghost:          17169 ave       17169 max       17169 min
Histogram: 1 0 0 0 0 0 0 0 0 0
Neighs:         311475 ave      311475 max      311475 min
Histogram: 1 0 0 0 0 0 0 0 0 0

Total # of neighbors = 311475
Ave neighs/atom = 67.273218
Neighbor list builds = 0
Dangerous builds = 0

     change_box all x final -64.21695016406389 107.23598201226389 units box
Changing box ...
  triclinic box = (-64.21695 0 380) to (107.23598 4.4274527 500) with tilt (0 0 0)
    
run 0
WARNING: No fixes with time integration, atoms won't move (src/src/verlet.cpp:60)
Per MPI rank memory allocation (min/avg/max) = 9.635 | 9.635 | 9.635 Mbytes
   Step          Temp          E_pair         E_mol          TotEng         Press     
         0   1.1766422e-06 -16242.668      0             -16242.668     -859.77968    
Loop time of 2.512e-06 on 1 procs for 0 steps with 4630 atoms

437.9% CPU use with 1 MPI tasks x 1 OpenMP threads

MPI task timing breakdown:
Section |  min time  |  avg time  |  max time  |%varavg| %total
---------------------------------------------------------------
Pair    | 0          | 0          | 0          |   0.0 |  0.00
Neigh   | 0          | 0          | 0          |   0.0 |  0.00
Comm    | 0          | 0          | 0          |   0.0 |  0.00
Output  | 0          | 0          | 0          |   0.0 |  0.00
Modify  | 0          | 0          | 0          |   0.0 |  0.00
Other   |            | 2.512e-06  |            |       |100.00

Nlocal:           4630 ave        4630 max        4630 min
Histogram: 1 0 0 0 0 0 0 0 0 0
Nghost:          17169 ave       17169 max       17169 min
Histogram: 1 0 0 0 0 0 0 0 0 0
Neighs:         311475 ave      311475 max      311475 min
Histogram: 1 0 0 0 0 0 0 0 0 0

Total # of neighbors = 311475
Ave neighs/atom = 67.273218
Neighbor list builds = 0
Dangerous builds = 0

     change_box all x final -64.21695012160716 107.23598196980716 units box
Changing box ...
  triclinic box = (-64.21695 0 380) to (107.23598 4.4274527 500) with tilt (0 0 0)
    
run 0
WARNING: No fixes with time integration, atoms won't move (src/src/verlet.cpp:60)
Per MPI rank memory allocation (min/avg/max) = 9.635 | 9.635 | 9.635 Mbytes
   Step          Temp          E_pair         E_mol          TotEng         Press     
         0   1.1766422e-06 -16242.668      0             -16242.668     -859.77966    
Loop time of 2.675e-06 on 1 procs for 0 steps with 4630 atoms

448.6% CPU use with 1 MPI tasks x 1 OpenMP threads

MPI task timing breakdown:
Section |  min time  |  avg time  |  max time  |%varavg| %total
---------------------------------------------------------------
Pair    | 0          | 0          | 0          |   0.0 |  0.00
Neigh   | 0          | 0          | 0          |   0.0 |  0.00
Comm    | 0          | 0          | 0          |   0.0 |  0.00
Output  | 0          | 0          | 0          |   0.0 |  0.00
Modify  | 0          | 0          | 0          |   0.0 |  0.00
Other   |            | 2.675e-06  |            |       |100.00

Nlocal:           4630 ave        4630 max        4630 min
Histogram: 1 0 0 0 0 0 0 0 0 0
Nghost:          17169 ave       17169 max       17169 min
Histogram: 1 0 0 0 0 0 0 0 0 0
Neighs:         311475 ave      311475 max      311475 min
Histogram: 1 0 0 0 0 0 0 0 0 0

Total # of neighbors = 311475
Ave neighs/atom = 67.273218
Neighbor list builds = 0
Dangerous builds = 0

     change_box all x final -64.21695010828199 107.235981956482 units box
Changing box ...
  triclinic box = (-64.21695 0 380) to (107.23598 4.4274527 500) with tilt (0 0 0)
    
run 0
WARNING: No fixes with time integration, atoms won't move (src/src/verlet.cpp:60)
Per MPI rank memory allocation (min/avg/max) = 9.635 | 9.635 | 9.635 Mbytes
   Step          Temp          E_pair         E_mol          TotEng         Press     
         0   1.1766422e-06 -16242.668      0             -16242.668     -859.77946    
Loop time of 2.763e-06 on 1 procs for 0 steps with 4630 atoms

579.1% CPU use with 1 MPI tasks x 1 OpenMP threads

MPI task timing breakdown:
Section |  min time  |  avg time  |  max time  |%varavg| %total
---------------------------------------------------------------
Pair    | 0          | 0          | 0          |   0.0 |  0.00
Neigh   | 0          | 0          | 0          |   0.0 |  0.00
Comm    | 0          | 0          | 0          |   0.0 |  0.00
Output  | 0          | 0          | 0          |   0.0 |  0.00
Modify  | 0          | 0          | 0          |   0.0 |  0.00
Other   |            | 2.763e-06  |            |       |100.00

Nlocal:           4630 ave        4630 max        4630 min
Histogram: 1 0 0 0 0 0 0 0 0 0
Nghost:          17169 ave       17169 max       17169 min
Histogram: 1 0 0 0 0 0 0 0 0 0
Neighs:         311475 ave      311475 max      311475 min
Histogram: 1 0 0 0 0 0 0 0 0 0

Total # of neighbors = 311475
Ave neighs/atom = 67.273218
Neighbor list builds = 0
Dangerous builds = 0

     change_box all x final -64.21695009754166 107.23598194574166 units box
Changing box ...
  triclinic box = (-64.21695 0 380) to (107.23598 4.4274527 500) with tilt (0 0 0)
    
run 0
WARNING: No fixes with time integration, atoms won't move (src/src/verlet.cpp:60)
Per MPI rank memory allocation (min/avg/max) = 9.635 | 9.635 | 9.635 Mbytes
   Step          Temp          E_pair         E_mol          TotEng         Press     
         0   1.1766422e-06 -16242.668      0             -16242.668     -859.77963    
Loop time of 2.928e-06 on 1 procs for 0 steps with 4630 atoms

614.8% CPU use with 1 MPI tasks x 1 OpenMP threads

MPI task timing breakdown:
Section |  min time  |  avg time  |  max time  |%varavg| %total
---------------------------------------------------------------
Pair    | 0          | 0          | 0          |   0.0 |  0.00
Neigh   | 0          | 0          | 0          |   0.0 |  0.00
Comm    | 0          | 0          | 0          |   0.0 |  0.00
Output  | 0          | 0          | 0          |   0.0 |  0.00
Modify  | 0          | 0          | 0          |   0.0 |  0.00
Other   |            | 2.928e-06  |            |       |100.00

Nlocal:           4630 ave        4630 max        4630 min
Histogram: 1 0 0 0 0 0 0 0 0 0
Nghost:          17169 ave       17169 max       17169 min
Histogram: 1 0 0 0 0 0 0 0 0 0
Neighs:         311475 ave      311475 max      311475 min
Histogram: 1 0 0 0 0 0 0 0 0 0

Total # of neighbors = 311475
Ave neighs/atom = 67.273218
Neighbor list builds = 0
Dangerous builds = 0

     change_box all x final -64.21695008770095 107.23598193590095 units box
Changing box ...
  triclinic box = (-64.21695 0 380) to (107.23598 4.4274527 500) with tilt (0 0 0)
    
run 0
WARNING: No fixes with time integration, atoms won't move (src/src/verlet.cpp:60)
Per MPI rank memory allocation (min/avg/max) = 9.635 | 9.635 | 9.635 Mbytes
   Step          Temp          E_pair         E_mol          TotEng         Press     
         0   1.1766422e-06 -16242.668      0             -16242.668     -859.77947    
Loop time of 2.439e-06 on 1 procs for 0 steps with 4630 atoms

615.0% CPU use with 1 MPI tasks x 1 OpenMP threads

MPI task timing breakdown:
Section |  min time  |  avg time  |  max time  |%varavg| %total
---------------------------------------------------------------
Pair    | 0          | 0          | 0          |   0.0 |  0.00
Neigh   | 0          | 0          | 0          |   0.0 |  0.00
Comm    | 0          | 0          | 0          |   0.0 |  0.00
Output  | 0          | 0          | 0          |   0.0 |  0.00
Modify  | 0          | 0          | 0          |   0.0 |  0.00
Other   |            | 2.439e-06  |            |       |100.00

Nlocal:           4630 ave        4630 max        4630 min
Histogram: 1 0 0 0 0 0 0 0 0 0
Nghost:          17169 ave       17169 max       17169 min
Histogram: 1 0 0 0 0 0 0 0 0 0
Neighs:         311475 ave      311475 max      311475 min
Histogram: 1 0 0 0 0 0 0 0 0 0

Total # of neighbors = 311475
Ave neighs/atom = 67.273218
Neighbor list builds = 0
Dangerous builds = 0

     change_box all x final -64.21695010899386 107.23598195719386 units box
Changing box ...
  triclinic box = (-64.21695 0 380) to (107.23598 4.4274527 500) with tilt (0 0 0)
    
run 0
WARNING: No fixes with time integration, atoms won't move (src/src/verlet.cpp:60)
Per MPI rank memory allocation (min/avg/max) = 9.635 | 9.635 | 9.635 Mbytes
   Step          Temp          E_pair         E_mol          TotEng         Press     
         0   1.1766422e-06 -16242.668      0             -16242.668     -859.77957    
Loop time of 2.4e-06 on 1 procs for 0 steps with 4630 atoms

541.7% CPU use with 1 MPI tasks x 1 OpenMP threads

MPI task timing breakdown:
Section |  min time  |  avg time  |  max time  |%varavg| %total
---------------------------------------------------------------
Pair    | 0          | 0          | 0          |   0.0 |  0.00
Neigh   | 0          | 0          | 0          |   0.0 |  0.00
Comm    | 0          | 0          | 0          |   0.0 |  0.00
Output  | 0          | 0          | 0          |   0.0 |  0.00
Modify  | 0          | 0          | 0          |   0.0 |  0.00
Other   |            | 2.4e-06    |            |       |100.00

Nlocal:           4630 ave        4630 max        4630 min
Histogram: 1 0 0 0 0 0 0 0 0 0
Nghost:          17169 ave       17169 max       17169 min
Histogram: 1 0 0 0 0 0 0 0 0 0
Neighs:         311475 ave      311475 max      311475 min
Histogram: 1 0 0 0 0 0 0 0 0 0

Total # of neighbors = 311475
Ave neighs/atom = 67.273218
Neighbor list builds = 0
Dangerous builds = 0

     change_box all x final -64.21695008859437 107.23598193679437 units box
Changing box ...
  triclinic box = (-64.21695 0 380) to (107.23598 4.4274527 500) with tilt (0 0 0)
    
run 0
WARNING: No fixes with time integration, atoms won't move (src/src/verlet.cpp:60)
Per MPI rank memory allocation (min/avg/max) = 9.635 | 9.635 | 9.635 Mbytes
   Step          Temp          E_pair         E_mol          TotEng         Press     
         0   1.1766422e-06 -16242.668      0             -16242.668     -859.77913    
Loop time of 2.844e-06 on 1 procs for 0 steps with 4630 atoms

668.1% CPU use with 1 MPI tasks x 1 OpenMP threads

MPI task timing breakdown:
Section |  min time  |  avg time  |  max time  |%varavg| %total
---------------------------------------------------------------
Pair    | 0          | 0          | 0          |   0.0 |  0.00
Neigh   | 0          | 0          | 0          |   0.0 |  0.00
Comm    | 0          | 0          | 0          |   0.0 |  0.00
Output  | 0          | 0          | 0          |   0.0 |  0.00
Modify  | 0          | 0          | 0          |   0.0 |  0.00
Other   |            | 2.844e-06  |            |       |100.00

Nlocal:           4630 ave        4630 max        4630 min
Histogram: 1 0 0 0 0 0 0 0 0 0
Nghost:          17169 ave       17169 max       17169 min
Histogram: 1 0 0 0 0 0 0 0 0 0
Neighs:         311475 ave      311475 max      311475 min
Histogram: 1 0 0 0 0 0 0 0 0 0

Total # of neighbors = 311475
Ave neighs/atom = 67.273218
Neighbor list builds = 0
Dangerous builds = 0

     change_box all x final -64.2169500827245 107.2359819309245 units box
Changing box ...
  triclinic box = (-64.21695 0 380) to (107.23598 4.4274527 500) with tilt (0 0 0)
    
run 0
WARNING: No fixes with time integration, atoms won't move (src/src/verlet.cpp:60)
Per MPI rank memory allocation (min/avg/max) = 9.635 | 9.635 | 9.635 Mbytes
   Step          Temp          E_pair         E_mol          TotEng         Press     
         0   1.1766422e-06 -16242.668      0             -16242.668     -859.77933    
Loop time of 2.757e-06 on 1 procs for 0 steps with 4630 atoms

507.8% CPU use with 1 MPI tasks x 1 OpenMP threads

MPI task timing breakdown:
Section |  min time  |  avg time  |  max time  |%varavg| %total
---------------------------------------------------------------
Pair    | 0          | 0          | 0          |   0.0 |  0.00
Neigh   | 0          | 0          | 0          |   0.0 |  0.00
Comm    | 0          | 0          | 0          |   0.0 |  0.00
Output  | 0          | 0          | 0          |   0.0 |  0.00
Modify  | 0          | 0          | 0          |   0.0 |  0.00
Other   |            | 2.757e-06  |            |       |100.00

Nlocal:           4630 ave        4630 max        4630 min
Histogram: 1 0 0 0 0 0 0 0 0 0
Nghost:          17169 ave       17169 max       17169 min
Histogram: 1 0 0 0 0 0 0 0 0 0
Neighs:         311475 ave      311475 max      311475 min
Histogram: 1 0 0 0 0 0 0 0 0 0

Total # of neighbors = 311475
Ave neighs/atom = 67.273218
Neighbor list builds = 0
Dangerous builds = 0

     change_box all x final -64.21695010645485 107.23598195465485 units box
Changing box ...
  triclinic box = (-64.21695 0 380) to (107.23598 4.4274527 500) with tilt (0 0 0)
    
run 0
WARNING: No fixes with time integration, atoms won't move (src/src/verlet.cpp:60)
Per MPI rank memory allocation (min/avg/max) = 9.635 | 9.635 | 9.635 Mbytes
   Step          Temp          E_pair         E_mol          TotEng         Press     
         0   1.1766422e-06 -16242.668      0             -16242.668     -859.7792     
Loop time of 2.204e-06 on 1 procs for 0 steps with 4630 atoms

726.0% CPU use with 1 MPI tasks x 1 OpenMP threads

MPI task timing breakdown:
Section |  min time  |  avg time  |  max time  |%varavg| %total
---------------------------------------------------------------
Pair    | 0          | 0          | 0          |   0.0 |  0.00
Neigh   | 0          | 0          | 0          |   0.0 |  0.00
Comm    | 0          | 0          | 0          |   0.0 |  0.00
Output  | 0          | 0          | 0          |   0.0 |  0.00
Modify  | 0          | 0          | 0          |   0.0 |  0.00
Other   |            | 2.204e-06  |            |       |100.00

Nlocal:           4630 ave        4630 max        4630 min
Histogram: 1 0 0 0 0 0 0 0 0 0
Nghost:          17169 ave       17169 max       17169 min
Histogram: 1 0 0 0 0 0 0 0 0 0
Neighs:         311475 ave      311475 max      311475 min
Histogram: 1 0 0 0 0 0 0 0 0 0

Total # of neighbors = 311475
Ave neighs/atom = 67.273218
Neighbor list builds = 0
Dangerous builds = 0

     change_box all x final -64.21695008976975 107.23598193796975 units box
Changing box ...
  triclinic box = (-64.21695 0 380) to (107.23598 4.4274527 500) with tilt (0 0 0)
    
run 0
WARNING: No fixes with time integration, atoms won't move (src/src/verlet.cpp:60)
Per MPI rank memory allocation (min/avg/max) = 9.635 | 9.635 | 9.635 Mbytes
   Step          Temp          E_pair         E_mol          TotEng         Press     
         0   1.1766422e-06 -16242.668      0             -16242.668     -859.77955    
Loop time of 2.712e-06 on 1 procs for 0 steps with 4630 atoms

553.1% CPU use with 1 MPI tasks x 1 OpenMP threads

MPI task timing breakdown:
Section |  min time  |  avg time  |  max time  |%varavg| %total
---------------------------------------------------------------
Pair    | 0          | 0          | 0          |   0.0 |  0.00
Neigh   | 0          | 0          | 0          |   0.0 |  0.00
Comm    | 0          | 0          | 0          |   0.0 |  0.00
Output  | 0          | 0          | 0          |   0.0 |  0.00
Modify  | 0          | 0          | 0          |   0.0 |  0.00
Other   |            | 2.712e-06  |            |       |100.00

Nlocal:           4630 ave        4630 max        4630 min
Histogram: 1 0 0 0 0 0 0 0 0 0
Nghost:          17169 ave       17169 max       17169 min
Histogram: 1 0 0 0 0 0 0 0 0 0
Neighs:         311475 ave      311475 max      311475 min
Histogram: 1 0 0 0 0 0 0 0 0 0

Total # of neighbors = 311475
Ave neighs/atom = 67.273218
Neighbor list builds = 0
Dangerous builds = 0

     change_box all x final -64.21695009384425 107.23598194204425 units box
Changing box ...
  triclinic box = (-64.21695 0 380) to (107.23598 4.4274527 500) with tilt (0 0 0)
    
run 0
WARNING: No fixes with time integration, atoms won't move (src/src/verlet.cpp:60)
Per MPI rank memory allocation (min/avg/max) = 9.635 | 9.635 | 9.635 Mbytes
   Step          Temp          E_pair         E_mol          TotEng         Press     
         0   1.1766422e-06 -16242.668      0             -16242.668     -859.77951    
Loop time of 2.87e-06 on 1 procs for 0 steps with 4630 atoms

487.8% CPU use with 1 MPI tasks x 1 OpenMP threads

MPI task timing breakdown:
Section |  min time  |  avg time  |  max time  |%varavg| %total
---------------------------------------------------------------
Pair    | 0          | 0          | 0          |   0.0 |  0.00
Neigh   | 0          | 0          | 0          |   0.0 |  0.00
Comm    | 0          | 0          | 0          |   0.0 |  0.00
Output  | 0          | 0          | 0          |   0.0 |  0.00
Modify  | 0          | 0          | 0          |   0.0 |  0.00
Other   |            | 2.87e-06   |            |       |100.00

Nlocal:           4630 ave        4630 max        4630 min
Histogram: 1 0 0 0 0 0 0 0 0 0
Nghost:          17169 ave       17169 max       17169 min
Histogram: 1 0 0 0 0 0 0 0 0 0
Neighs:         311475 ave      311475 max      311475 min
Histogram: 1 0 0 0 0 0 0 0 0 0

Total # of neighbors = 311475
Ave neighs/atom = 67.273218
Neighbor list builds = 0
Dangerous builds = 0

     change_box all x final -64.21695008983397 107.23598193803397 units box
Changing box ...
  triclinic box = (-64.21695 0 380) to (107.23598 4.4274527 500) with tilt (0 0 0)
    
run 0
WARNING: No fixes with time integration, atoms won't move (src/src/verlet.cpp:60)
Per MPI rank memory allocation (min/avg/max) = 9.635 | 9.635 | 9.635 Mbytes
   Step          Temp          E_pair         E_mol          TotEng         Press     
         0   1.1766422e-06 -16242.668      0             -16242.668     -859.77947    
Loop time of 2.345e-06 on 1 procs for 0 steps with 4630 atoms

469.1% CPU use with 1 MPI tasks x 1 OpenMP threads

MPI task timing breakdown:
Section |  min time  |  avg time  |  max time  |%varavg| %total
---------------------------------------------------------------
Pair    | 0          | 0          | 0          |   0.0 |  0.00
Neigh   | 0          | 0          | 0          |   0.0 |  0.00
Comm    | 0          | 0          | 0          |   0.0 |  0.00
Output  | 0          | 0          | 0          |   0.0 |  0.00
Modify  | 0          | 0          | 0          |   0.0 |  0.00
Other   |            | 2.345e-06  |            |       |100.00

Nlocal:           4630 ave        4630 max        4630 min
Histogram: 1 0 0 0 0 0 0 0 0 0
Nghost:          17169 ave       17169 max       17169 min
Histogram: 1 0 0 0 0 0 0 0 0 0
Neighs:         311475 ave      311475 max      311475 min
Histogram: 1 0 0 0 0 0 0 0 0 0

Total # of neighbors = 311475
Ave neighs/atom = 67.273218
Neighbor list builds = 0
Dangerous builds = 0

     change_box all x final -64.21695008773386 107.23598193593386 units box
Changing box ...
  triclinic box = (-64.21695 0 380) to (107.23598 4.4274527 500) with tilt (0 0 0)
    
run 0
WARNING: No fixes with time integration, atoms won't move (src/src/verlet.cpp:60)
Per MPI rank memory allocation (min/avg/max) = 9.635 | 9.635 | 9.635 Mbytes
   Step          Temp          E_pair         E_mol          TotEng         Press     
         0   1.1766422e-06 -16242.668      0             -16242.668     -859.77939    
Loop time of 2.736e-06 on 1 procs for 0 steps with 4630 atoms

511.7% CPU use with 1 MPI tasks x 1 OpenMP threads

MPI task timing breakdown:
Section |  min time  |  avg time  |  max time  |%varavg| %total
---------------------------------------------------------------
Pair    | 0          | 0          | 0          |   0.0 |  0.00
Neigh   | 0          | 0          | 0          |   0.0 |  0.00
Comm    | 0          | 0          | 0          |   0.0 |  0.00
Output  | 0          | 0          | 0          |   0.0 |  0.00
Modify  | 0          | 0          | 0          |   0.0 |  0.00
Other   |            | 2.736e-06  |            |       |100.00

Nlocal:           4630 ave        4630 max        4630 min
Histogram: 1 0 0 0 0 0 0 0 0 0
Nghost:          17169 ave       17169 max       17169 min
Histogram: 1 0 0 0 0 0 0 0 0 0
Neighs:         311475 ave      311475 max      311475 min
Histogram: 1 0 0 0 0 0 0 0 0 0

Total # of neighbors = 311475
Ave neighs/atom = 67.273218
Neighbor list builds = 0
Dangerous builds = 0

     change_box all x final -64.21695010331828 107.23598195151828 units box
Changing box ...
  triclinic box = (-64.21695 0 380) to (107.23598 4.4274527 500) with tilt (0 0 0)
    
run 0
WARNING: No fixes with time integration, atoms won't move (src/src/verlet.cpp:60)
Per MPI rank memory allocation (min/avg/max) = 9.635 | 9.635 | 9.635 Mbytes
   Step          Temp          E_pair         E_mol          TotEng         Press     
         0   1.1766422e-06 -16242.668      0             -16242.668     -859.77946    
Loop time of 1.666e-06 on 1 procs for 0 steps with 4630 atoms

360.1% CPU use with 1 MPI tasks x 1 OpenMP threads

MPI task timing breakdown:
Section |  min time  |  avg time  |  max time  |%varavg| %total
---------------------------------------------------------------
Pair    | 0          | 0          | 0          |   0.0 |  0.00
Neigh   | 0          | 0          | 0          |   0.0 |  0.00
Comm    | 0          | 0          | 0          |   0.0 |  0.00
Output  | 0          | 0          | 0          |   0.0 |  0.00
Modify  | 0          | 0          | 0          |   0.0 |  0.00
Other   |            | 1.666e-06  |            |       |100.00

Nlocal:           4630 ave        4630 max        4630 min
Histogram: 1 0 0 0 0 0 0 0 0 0
Nghost:          17169 ave       17169 max       17169 min
Histogram: 1 0 0 0 0 0 0 0 0 0
Neighs:         311475 ave      311475 max      311475 min
Histogram: 1 0 0 0 0 0 0 0 0 0

Total # of neighbors = 311475
Ave neighs/atom = 67.273218
Neighbor list builds = 0
Dangerous builds = 0

     change_box all x final -64.2169500993116 107.2359819475116 units box
Changing box ...
  triclinic box = (-64.21695 0 380) to (107.23598 4.4274527 500) with tilt (0 0 0)
    
run 0
WARNING: No fixes with time integration, atoms won't move (src/src/verlet.cpp:60)
Per MPI rank memory allocation (min/avg/max) = 9.635 | 9.635 | 9.635 Mbytes
   Step          Temp          E_pair         E_mol          TotEng         Press     
         0   1.1766422e-06 -16242.668      0             -16242.668     -859.7793     
Loop time of 2.732e-06 on 1 procs for 0 steps with 4630 atoms

0.0% CPU use with 1 MPI tasks x 1 OpenMP threads

MPI task timing breakdown:
Section |  min time  |  avg time  |  max time  |%varavg| %total
---------------------------------------------------------------
Pair    | 0          | 0          | 0          |   0.0 |  0.00
Neigh   | 0          | 0          | 0          |   0.0 |  0.00
Comm    | 0          | 0          | 0          |   0.0 |  0.00
Output  | 0          | 0          | 0          |   0.0 |  0.00
Modify  | 0          | 0          | 0          |   0.0 |  0.00
Other   |            | 2.732e-06  |            |       |100.00

Nlocal:           4630 ave        4630 max        4630 min
Histogram: 1 0 0 0 0 0 0 0 0 0
Nghost:          17169 ave       17169 max       17169 min
Histogram: 1 0 0 0 0 0 0 0 0 0
Neighs:         311475 ave      311475 max      311475 min
Histogram: 1 0 0 0 0 0 0 0 0 0

Total # of neighbors = 311475
Ave neighs/atom = 67.273218
Neighbor list builds = 0
Dangerous builds = 0

     change_box all x final -64.21695008533746 107.23598193353746 units box
Changing box ...
  triclinic box = (-64.21695 0 380) to (107.23598 4.4274527 500) with tilt (0 0 0)
    
run 0
WARNING: No fixes with time integration, atoms won't move (src/src/verlet.cpp:60)
Per MPI rank memory allocation (min/avg/max) = 9.635 | 9.635 | 9.635 Mbytes
   Step          Temp          E_pair         E_mol          TotEng         Press     
         0   1.1766422e-06 -16242.668      0             -16242.668     -859.77938    
Loop time of 2.921e-06 on 1 procs for 0 steps with 4630 atoms

582.0% CPU use with 1 MPI tasks x 1 OpenMP threads

MPI task timing breakdown:
Section |  min time  |  avg time  |  max time  |%varavg| %total
---------------------------------------------------------------
Pair    | 0          | 0          | 0          |   0.0 |  0.00
Neigh   | 0          | 0          | 0          |   0.0 |  0.00
Comm    | 0          | 0          | 0          |   0.0 |  0.00
Output  | 0          | 0          | 0          |   0.0 |  0.00
Modify  | 0          | 0          | 0          |   0.0 |  0.00
Other   |            | 2.921e-06  |            |       |100.00

Nlocal:           4630 ave        4630 max        4630 min
Histogram: 1 0 0 0 0 0 0 0 0 0
Nghost:          17169 ave       17169 max       17169 min
Histogram: 1 0 0 0 0 0 0 0 0 0
Neighs:         311475 ave      311475 max      311475 min
Histogram: 1 0 0 0 0 0 0 0 0 0

Total # of neighbors = 311475
Ave neighs/atom = 67.273218
Neighbor list builds = 0
Dangerous builds = 0

     change_box all x final -64.21695009403456 107.23598194223456 units box
Changing box ...
  triclinic box = (-64.21695 0 380) to (107.23598 4.4274527 500) with tilt (0 0 0)
    
run 0
WARNING: No fixes with time integration, atoms won't move (src/src/verlet.cpp:60)
Per MPI rank memory allocation (min/avg/max) = 9.635 | 9.635 | 9.635 Mbytes
   Step          Temp          E_pair         E_mol          TotEng         Press     
         0   1.1766422e-06 -16242.668      0             -16242.668     -859.77945    
Loop time of 2.724e-06 on 1 procs for 0 steps with 4630 atoms

550.7% CPU use with 1 MPI tasks x 1 OpenMP threads

MPI task timing breakdown:
Section |  min time  |  avg time  |  max time  |%varavg| %total
---------------------------------------------------------------
Pair    | 0          | 0          | 0          |   0.0 |  0.00
Neigh   | 0          | 0          | 0          |   0.0 |  0.00
Comm    | 0          | 0          | 0          |   0.0 |  0.00
Output  | 0          | 0          | 0          |   0.0 |  0.00
Modify  | 0          | 0          | 0          |   0.0 |  0.00
Other   |            | 2.724e-06  |            |       |100.00

Nlocal:           4630 ave        4630 max        4630 min
Histogram: 1 0 0 0 0 0 0 0 0 0
Nghost:          17169 ave       17169 max       17169 min
Histogram: 1 0 0 0 0 0 0 0 0 0
Neighs:         311475 ave      311475 max      311475 min
Histogram: 1 0 0 0 0 0 0 0 0 0

Total # of neighbors = 311475
Ave neighs/atom = 67.273218
Neighbor list builds = 0
Dangerous builds = 0

     change_box all x final -64.21695010609356 107.23598195429356 units box
Changing box ...
  triclinic box = (-64.21695 0 380) to (107.23598 4.4274527 500) with tilt (0 0 0)
    
run 0
WARNING: No fixes with time integration, atoms won't move (src/src/verlet.cpp:60)
Per MPI rank memory allocation (min/avg/max) = 9.635 | 9.635 | 9.635 Mbytes
   Step          Temp          E_pair         E_mol          TotEng         Press     
         0   1.1766422e-06 -16242.668      0             -16242.668     -859.77966    
Loop time of 2.733e-06 on 1 procs for 0 steps with 4630 atoms

548.8% CPU use with 1 MPI tasks x 1 OpenMP threads

MPI task timing breakdown:
Section |  min time  |  avg time  |  max time  |%varavg| %total
---------------------------------------------------------------
Pair    | 0          | 0          | 0          |   0.0 |  0.00
Neigh   | 0          | 0          | 0          |   0.0 |  0.00
Comm    | 0          | 0          | 0          |   0.0 |  0.00
Output  | 0          | 0          | 0          |   0.0 |  0.00
Modify  | 0          | 0          | 0          |   0.0 |  0.00
Other   |            | 2.733e-06  |            |       |100.00

Nlocal:           4630 ave        4630 max        4630 min
Histogram: 1 0 0 0 0 0 0 0 0 0
Nghost:          17169 ave       17169 max       17169 min
Histogram: 1 0 0 0 0 0 0 0 0 0
Neighs:         311475 ave      311475 max      311475 min
Histogram: 1 0 0 0 0 0 0 0 0 0

Total # of neighbors = 311475
Ave neighs/atom = 67.273218
Neighbor list builds = 0
Dangerous builds = 0

     change_box all x final -64.21695009021174 107.23598193841174 units box
Changing box ...
  triclinic box = (-64.21695 0 380) to (107.23598 4.4274527 500) with tilt (0 0 0)
    
run 0
WARNING: No fixes with time integration, atoms won't move (src/src/verlet.cpp:60)
Per MPI rank memory allocation (min/avg/max) = 9.635 | 9.635 | 9.635 Mbytes
   Step          Temp          E_pair         E_mol          TotEng         Press     
         0   1.1766422e-06 -16242.668      0             -16242.668     -859.77941    
Loop time of 2.7e-06 on 1 procs for 0 steps with 4630 atoms

518.5% CPU use with 1 MPI tasks x 1 OpenMP threads

MPI task timing breakdown:
Section |  min time  |  avg time  |  max time  |%varavg| %total
---------------------------------------------------------------
Pair    | 0          | 0          | 0          |   0.0 |  0.00
Neigh   | 0          | 0          | 0          |   0.0 |  0.00
Comm    | 0          | 0          | 0          |   0.0 |  0.00
Output  | 0          | 0          | 0          |   0.0 |  0.00
Modify  | 0          | 0          | 0          |   0.0 |  0.00
Other   |            | 2.7e-06    |            |       |100.00

Nlocal:           4630 ave        4630 max        4630 min
Histogram: 1 0 0 0 0 0 0 0 0 0
Nghost:          17169 ave       17169 max       17169 min
Histogram: 1 0 0 0 0 0 0 0 0 0
Neighs:         311475 ave      311475 max      311475 min
Histogram: 1 0 0 0 0 0 0 0 0 0

Total # of neighbors = 311475
Ave neighs/atom = 67.273218
Neighbor list builds = 0
Dangerous builds = 0

     change_box all x final -64.2169500920312 107.2359819402312 units box
Changing box ...
  triclinic box = (-64.21695 0 380) to (107.23598 4.4274527 500) with tilt (0 0 0)
    
run 0
WARNING: No fixes with time integration, atoms won't move (src/src/verlet.cpp:60)
Per MPI rank memory allocation (min/avg/max) = 9.635 | 9.635 | 9.635 Mbytes
   Step          Temp          E_pair         E_mol          TotEng         Press     
         0   1.1766422e-06 -16242.668      0             -16242.668     -859.77939    
Loop time of 2.93e-06 on 1 procs for 0 steps with 4630 atoms

477.8% CPU use with 1 MPI tasks x 1 OpenMP threads

MPI task timing breakdown:
Section |  min time  |  avg time  |  max time  |%varavg| %total
---------------------------------------------------------------
Pair    | 0          | 0          | 0          |   0.0 |  0.00
Neigh   | 0          | 0          | 0          |   0.0 |  0.00
Comm    | 0          | 0          | 0          |   0.0 |  0.00
Output  | 0          | 0          | 0          |   0.0 |  0.00
Modify  | 0          | 0          | 0          |   0.0 |  0.00
Other   |            | 2.93e-06   |            |       |100.00

Nlocal:           4630 ave        4630 max        4630 min
Histogram: 1 0 0 0 0 0 0 0 0 0
Nghost:          17169 ave       17169 max       17169 min
Histogram: 1 0 0 0 0 0 0 0 0 0
Neighs:         311475 ave      311475 max      311475 min
Histogram: 1 0 0 0 0 0 0 0 0 0

Total # of neighbors = 311475
Ave neighs/atom = 67.273218
Neighbor list builds = 0
Dangerous builds = 0

     change_box all x final -64.21695008854006 107.23598193674006 units box
Changing box ...
  triclinic box = (-64.21695 0 380) to (107.23598 4.4274527 500) with tilt (0 0 0)
    
run 0
WARNING: No fixes with time integration, atoms won't move (src/src/verlet.cpp:60)
Per MPI rank memory allocation (min/avg/max) = 9.635 | 9.635 | 9.635 Mbytes
   Step          Temp          E_pair         E_mol          TotEng         Press     
         0   1.1766422e-06 -16242.668      0             -16242.668     -859.77927    
Loop time of 2.624e-06 on 1 procs for 0 steps with 4630 atoms

457.3% CPU use with 1 MPI tasks x 1 OpenMP threads

MPI task timing breakdown:
Section |  min time  |  avg time  |  max time  |%varavg| %total
---------------------------------------------------------------
Pair    | 0          | 0          | 0          |   0.0 |  0.00
Neigh   | 0          | 0          | 0          |   0.0 |  0.00
Comm    | 0          | 0          | 0          |   0.0 |  0.00
Output  | 0          | 0          | 0          |   0.0 |  0.00
Modify  | 0          | 0          | 0          |   0.0 |  0.00
Other   |            | 2.624e-06  |            |       |100.00

Nlocal:           4630 ave        4630 max        4630 min
Histogram: 1 0 0 0 0 0 0 0 0 0
Nghost:          17169 ave       17169 max       17169 min
Histogram: 1 0 0 0 0 0 0 0 0 0
Neighs:         311475 ave      311475 max      311475 min
Histogram: 1 0 0 0 0 0 0 0 0 0

Total # of neighbors = 311475
Ave neighs/atom = 67.273218
Neighbor list builds = 0
Dangerous builds = 0

     change_box all x final -64.21694725570593 107.23597910390593 units box
Changing box ...
  triclinic box = (-64.216947 0 380) to (107.23598 4.4274527 500) with tilt (0 0 0)
    
run 0
WARNING: No fixes with time integration, atoms won't move (src/src/verlet.cpp:60)
Per MPI rank memory allocation (min/avg/max) = 9.635 | 9.635 | 9.635 Mbytes
   Step          Temp          E_pair         E_mol          TotEng         Press     
         0   1.1766422e-06 -16242.668      0             -16242.668     -859.76439    
Loop time of 2.039e-06 on 1 procs for 0 steps with 4630 atoms

441.4% CPU use with 1 MPI tasks x 1 OpenMP threads

MPI task timing breakdown:
Section |  min time  |  avg time  |  max time  |%varavg| %total
---------------------------------------------------------------
Pair    | 0          | 0          | 0          |   0.0 |  0.00
Neigh   | 0          | 0          | 0          |   0.0 |  0.00
Comm    | 0          | 0          | 0          |   0.0 |  0.00
Output  | 0          | 0          | 0          |   0.0 |  0.00
Modify  | 0          | 0          | 0          |   0.0 |  0.00
Other   |            | 2.039e-06  |            |       |100.00

Nlocal:           4630 ave        4630 max        4630 min
Histogram: 1 0 0 0 0 0 0 0 0 0
Nghost:          17169 ave       17169 max       17169 min
Histogram: 1 0 0 0 0 0 0 0 0 0
Neighs:         311475 ave      311475 max      311475 min
Histogram: 1 0 0 0 0 0 0 0 0 0

Total # of neighbors = 311475
Ave neighs/atom = 67.273218
Neighbor list builds = 0
Dangerous builds = 0

     change_box all x final -64.21694725570593 107.23597910390593 units box
Changing box ...
  triclinic box = (-64.216947 0 380) to (107.23598 4.4274527 500) with tilt (0 0 0)
    

     change_box all x final -64.19290601222872 107.21193786042872 units box
Changing box ...
  triclinic box = (-64.192906 0 380) to (107.21194 4.4274527 500) with tilt (0 0 0)
    
run 0
WARNING: No fixes with time integration, atoms won't move (src/src/verlet.cpp:60)
Per MPI rank memory allocation (min/avg/max) = 9.635 | 9.635 | 9.635 Mbytes
   Step          Temp          E_pair         E_mol          TotEng         Press     
         0   1.1766422e-06 -16242.679      0             -16242.679     -782.44838    
Loop time of 2.98e-06 on 1 procs for 0 steps with 4630 atoms

369.1% CPU use with 1 MPI tasks x 1 OpenMP threads

MPI task timing breakdown:
Section |  min time  |  avg time  |  max time  |%varavg| %total
---------------------------------------------------------------
Pair    | 0          | 0          | 0          |   0.0 |  0.00
Neigh   | 0          | 0          | 0          |   0.0 |  0.00
Comm    | 0          | 0          | 0          |   0.0 |  0.00
Output  | 0          | 0          | 0          |   0.0 |  0.00
Modify  | 0          | 0          | 0          |   0.0 |  0.00
Other   |            | 2.98e-06   |            |       |100.00

Nlocal:           4630 ave        4630 max        4630 min
Histogram: 1 0 0 0 0 0 0 0 0 0
Nghost:          17169 ave       17169 max       17169 min
Histogram: 1 0 0 0 0 0 0 0 0 0
Neighs:         311475 ave      311475 max      311475 min
Histogram: 1 0 0 0 0 0 0 0 0 0

Total # of neighbors = 311475
Ave neighs/atom = 67.273218
Neighbor list builds = 0
Dangerous builds = 0

     change_box all x final -64.19290601222872 107.21193786042872 units box
Changing box ...
  triclinic box = (-64.192906 0 380) to (107.21194 4.4274527 500) with tilt (0 0 0)
    
run 0
WARNING: No fixes with time integration, atoms won't move (src/src/verlet.cpp:60)
Per MPI rank memory allocation (min/avg/max) = 9.635 | 9.635 | 9.635 Mbytes
   Step          Temp          E_pair         E_mol          TotEng         Press     
         0   1.1766422e-06 -16242.679      0             -16242.679     -782.45099    
Loop time of 2.917e-06 on 1 procs for 0 steps with 4630 atoms

0.0% CPU use with 1 MPI tasks x 1 OpenMP threads

MPI task timing breakdown:
Section |  min time  |  avg time  |  max time  |%varavg| %total
---------------------------------------------------------------
Pair    | 0          | 0          | 0          |   0.0 |  0.00
Neigh   | 0          | 0          | 0          |   0.0 |  0.00
Comm    | 0          | 0          | 0          |   0.0 |  0.00
Output  | 0          | 0          | 0          |   0.0 |  0.00
Modify  | 0          | 0          | 0          |   0.0 |  0.00
Other   |            | 2.917e-06  |            |       |100.00

Nlocal:           4630 ave        4630 max        4630 min
Histogram: 1 0 0 0 0 0 0 0 0 0
Nghost:          17169 ave       17169 max       17169 min
Histogram: 1 0 0 0 0 0 0 0 0 0
Neighs:         311475 ave      311475 max      311475 min
Histogram: 1 0 0 0 0 0 0 0 0 0

Total # of neighbors = 311475
Ave neighs/atom = 67.273218
Neighbor list builds = 0
Dangerous builds = 0

     change_box all x final -64.19290605045933 107.21193789865933 units box
Changing box ...
  triclinic box = (-64.192906 0 380) to (107.21194 4.4274527 500) with tilt (0 0 0)
    
run 0
WARNING: No fixes with time integration, atoms won't move (src/src/verlet.cpp:60)
Per MPI rank memory allocation (min/avg/max) = 9.635 | 9.635 | 9.635 Mbytes
   Step          Temp          E_pair         E_mol          TotEng         Press     
         0   1.1766422e-06 -16242.679      0             -16242.679     -782.44654    
Loop time of 2.577e-06 on 1 procs for 0 steps with 4630 atoms

504.5% CPU use with 1 MPI tasks x 1 OpenMP threads

MPI task timing breakdown:
Section |  min time  |  avg time  |  max time  |%varavg| %total
---------------------------------------------------------------
Pair    | 0          | 0          | 0          |   0.0 |  0.00
Neigh   | 0          | 0          | 0          |   0.0 |  0.00
Comm    | 0          | 0          | 0          |   0.0 |  0.00
Output  | 0          | 0          | 0          |   0.0 |  0.00
Modify  | 0          | 0          | 0          |   0.0 |  0.00
Other   |            | 2.577e-06  |            |       |100.00

Nlocal:           4630 ave        4630 max        4630 min
Histogram: 1 0 0 0 0 0 0 0 0 0
Nghost:          17169 ave       17169 max       17169 min
Histogram: 1 0 0 0 0 0 0 0 0 0
Neighs:         311475 ave      311475 max      311475 min
Histogram: 1 0 0 0 0 0 0 0 0 0

Total # of neighbors = 311475
Ave neighs/atom = 67.273218
Neighbor list builds = 0
Dangerous builds = 0

     change_box all x final -64.19290612347716 107.21193797167716 units box
Changing box ...
  triclinic box = (-64.192906 0 380) to (107.21194 4.4274527 500) with tilt (0 0 0)
    
run 0
WARNING: No fixes with time integration, atoms won't move (src/src/verlet.cpp:60)
Per MPI rank memory allocation (min/avg/max) = 9.635 | 9.635 | 9.635 Mbytes
   Step          Temp          E_pair         E_mol          TotEng         Press     
         0   1.1766422e-06 -16242.679      0             -16242.679     -782.44848    
Loop time of 2.694e-06 on 1 procs for 0 steps with 4630 atoms

0.0% CPU use with 1 MPI tasks x 1 OpenMP threads

MPI task timing breakdown:
Section |  min time  |  avg time  |  max time  |%varavg| %total
---------------------------------------------------------------
Pair    | 0          | 0          | 0          |   0.0 |  0.00
Neigh   | 0          | 0          | 0          |   0.0 |  0.00
Comm    | 0          | 0          | 0          |   0.0 |  0.00
Output  | 0          | 0          | 0          |   0.0 |  0.00
Modify  | 0          | 0          | 0          |   0.0 |  0.00
Other   |            | 2.694e-06  |            |       |100.00

Nlocal:           4630 ave        4630 max        4630 min
Histogram: 1 0 0 0 0 0 0 0 0 0
Nghost:          17169 ave       17169 max       17169 min
Histogram: 1 0 0 0 0 0 0 0 0 0
Neighs:         311475 ave      311475 max      311475 min
Histogram: 1 0 0 0 0 0 0 0 0 0

Total # of neighbors = 311475
Ave neighs/atom = 67.273218
Neighbor list builds = 0
Dangerous builds = 0

     change_box all x final -64.19290626545597 107.21193811365598 units box
Changing box ...
  triclinic box = (-64.192906 0 380) to (107.21194 4.4274527 500) with tilt (0 0 0)
    
run 0
WARNING: No fixes with time integration, atoms won't move (src/src/verlet.cpp:60)
Per MPI rank memory allocation (min/avg/max) = 9.635 | 9.635 | 9.635 Mbytes
   Step          Temp          E_pair         E_mol          TotEng         Press     
         0   1.1766422e-06 -16242.679      0             -16242.679     -782.45163    
Loop time of 2.656e-06 on 1 procs for 0 steps with 4630 atoms

489.5% CPU use with 1 MPI tasks x 1 OpenMP threads

MPI task timing breakdown:
Section |  min time  |  avg time  |  max time  |%varavg| %total
---------------------------------------------------------------
Pair    | 0          | 0          | 0          |   0.0 |  0.00
Neigh   | 0          | 0          | 0          |   0.0 |  0.00
Comm    | 0          | 0          | 0          |   0.0 |  0.00
Output  | 0          | 0          | 0          |   0.0 |  0.00
Modify  | 0          | 0          | 0          |   0.0 |  0.00
Other   |            | 2.656e-06  |            |       |100.00

Nlocal:           4630 ave        4630 max        4630 min
Histogram: 1 0 0 0 0 0 0 0 0 0
Nghost:          17169 ave       17169 max       17169 min
Histogram: 1 0 0 0 0 0 0 0 0 0
Neighs:         311475 ave      311475 max      311475 min
Histogram: 1 0 0 0 0 0 0 0 0 0

Total # of neighbors = 311475
Ave neighs/atom = 67.273218
Neighbor list builds = 0
Dangerous builds = 0

     change_box all x final -64.19290649569888 107.21193834389888 units box
Changing box ...
  triclinic box = (-64.192906 0 380) to (107.21194 4.4274527 500) with tilt (0 0 0)
    
run 0
WARNING: No fixes with time integration, atoms won't move (src/src/verlet.cpp:60)
Per MPI rank memory allocation (min/avg/max) = 9.635 | 9.635 | 9.635 Mbytes
   Step          Temp          E_pair         E_mol          TotEng         Press     
         0   1.1766422e-06 -16242.679      0             -16242.679     -782.45164    
Loop time of 2.534e-06 on 1 procs for 0 steps with 4630 atoms

552.5% CPU use with 1 MPI tasks x 1 OpenMP threads

MPI task timing breakdown:
Section |  min time  |  avg time  |  max time  |%varavg| %total
---------------------------------------------------------------
Pair    | 0          | 0          | 0          |   0.0 |  0.00
Neigh   | 0          | 0          | 0          |   0.0 |  0.00
Comm    | 0          | 0          | 0          |   0.0 |  0.00
Output  | 0          | 0          | 0          |   0.0 |  0.00
Modify  | 0          | 0          | 0          |   0.0 |  0.00
Other   |            | 2.534e-06  |            |       |100.00

Nlocal:           4630 ave        4630 max        4630 min
Histogram: 1 0 0 0 0 0 0 0 0 0
Nghost:          17169 ave       17169 max       17169 min
Histogram: 1 0 0 0 0 0 0 0 0 0
Neighs:         311475 ave      311475 max      311475 min
Histogram: 1 0 0 0 0 0 0 0 0 0

Total # of neighbors = 311475
Ave neighs/atom = 67.273218
Neighbor list builds = 0
Dangerous builds = 0

     change_box all x final -64.19290665737734 107.21193850557734 units box
Changing box ...
  triclinic box = (-64.192907 0 380) to (107.21194 4.4274527 500) with tilt (0 0 0)
    
run 0
WARNING: No fixes with time integration, atoms won't move (src/src/verlet.cpp:60)
Per MPI rank memory allocation (min/avg/max) = 9.635 | 9.635 | 9.635 Mbytes
   Step          Temp          E_pair         E_mol          TotEng         Press     
         0   1.1766422e-06 -16242.679      0             -16242.679     -782.45426    
Loop time of 2.743e-06 on 1 procs for 0 steps with 4630 atoms

473.9% CPU use with 1 MPI tasks x 1 OpenMP threads

MPI task timing breakdown:
Section |  min time  |  avg time  |  max time  |%varavg| %total
---------------------------------------------------------------
Pair    | 0          | 0          | 0          |   0.0 |  0.00
Neigh   | 0          | 0          | 0          |   0.0 |  0.00
Comm    | 0          | 0          | 0          |   0.0 |  0.00
Output  | 0          | 0          | 0          |   0.0 |  0.00
Modify  | 0          | 0          | 0          |   0.0 |  0.00
Other   |            | 2.743e-06  |            |       |100.00

Nlocal:           4630 ave        4630 max        4630 min
Histogram: 1 0 0 0 0 0 0 0 0 0
Nghost:          17169 ave       17169 max       17169 min
Histogram: 1 0 0 0 0 0 0 0 0 0
Neighs:         311475 ave      311475 max      311475 min
Histogram: 1 0 0 0 0 0 0 0 0 0

Total # of neighbors = 311475
Ave neighs/atom = 67.273218
Neighbor list builds = 0
Dangerous builds = 0

     change_box all x final -64.19290650061377 107.21193834881377 units box
Changing box ...
  triclinic box = (-64.192907 0 380) to (107.21194 4.4274527 500) with tilt (0 0 0)
    
run 0
WARNING: No fixes with time integration, atoms won't move (src/src/verlet.cpp:60)
Per MPI rank memory allocation (min/avg/max) = 9.635 | 9.635 | 9.635 Mbytes
   Step          Temp          E_pair         E_mol          TotEng         Press     
         0   1.1766422e-06 -16242.679      0             -16242.679     -782.45329    
Loop time of 2.482e-06 on 1 procs for 0 steps with 4630 atoms

523.8% CPU use with 1 MPI tasks x 1 OpenMP threads

MPI task timing breakdown:
Section |  min time  |  avg time  |  max time  |%varavg| %total
---------------------------------------------------------------
Pair    | 0          | 0          | 0          |   0.0 |  0.00
Neigh   | 0          | 0          | 0          |   0.0 |  0.00
Comm    | 0          | 0          | 0          |   0.0 |  0.00
Output  | 0          | 0          | 0          |   0.0 |  0.00
Modify  | 0          | 0          | 0          |   0.0 |  0.00
Other   |            | 2.482e-06  |            |       |100.00

Nlocal:           4630 ave        4630 max        4630 min
Histogram: 1 0 0 0 0 0 0 0 0 0
Nghost:          17169 ave       17169 max       17169 min
Histogram: 1 0 0 0 0 0 0 0 0 0
Neighs:         311475 ave      311475 max      311475 min
Histogram: 1 0 0 0 0 0 0 0 0 0

Total # of neighbors = 311475
Ave neighs/atom = 67.273218
Neighbor list builds = 0
Dangerous builds = 0

     change_box all x final -64.19290625607688 107.21193810427688 units box
Changing box ...
  triclinic box = (-64.192906 0 380) to (107.21194 4.4274527 500) with tilt (0 0 0)
    
run 0
WARNING: No fixes with time integration, atoms won't move (src/src/verlet.cpp:60)
Per MPI rank memory allocation (min/avg/max) = 9.635 | 9.635 | 9.635 Mbytes
   Step          Temp          E_pair         E_mol          TotEng         Press     
         0   1.1766422e-06 -16242.679      0             -16242.679     -782.45096    
Loop time of 2.616e-06 on 1 procs for 0 steps with 4630 atoms

496.9% CPU use with 1 MPI tasks x 1 OpenMP threads

MPI task timing breakdown:
Section |  min time  |  avg time  |  max time  |%varavg| %total
---------------------------------------------------------------
Pair    | 0          | 0          | 0          |   0.0 |  0.00
Neigh   | 0          | 0          | 0          |   0.0 |  0.00
Comm    | 0          | 0          | 0          |   0.0 |  0.00
Output  | 0          | 0          | 0          |   0.0 |  0.00
Modify  | 0          | 0          | 0          |   0.0 |  0.00
Other   |            | 2.616e-06  |            |       |100.00

Nlocal:           4630 ave        4630 max        4630 min
Histogram: 1 0 0 0 0 0 0 0 0 0
Nghost:          17169 ave       17169 max       17169 min
Histogram: 1 0 0 0 0 0 0 0 0 0
Neighs:         311475 ave      311475 max      311475 min
Histogram: 1 0 0 0 0 0 0 0 0 0

Total # of neighbors = 311475
Ave neighs/atom = 67.273218
Neighbor list builds = 0
Dangerous builds = 0

     change_box all x final -64.19290612201338 107.21193797021338 units box
Changing box ...
  triclinic box = (-64.192906 0 380) to (107.21194 4.4274527 500) with tilt (0 0 0)
    
run 0
WARNING: No fixes with time integration, atoms won't move (src/src/verlet.cpp:60)
Per MPI rank memory allocation (min/avg/max) = 9.635 | 9.635 | 9.635 Mbytes
   Step          Temp          E_pair         E_mol          TotEng         Press     
         0   1.1766422e-06 -16242.679      0             -16242.679     -782.44899    
Loop time of 2.743e-06 on 1 procs for 0 steps with 4630 atoms

255.2% CPU use with 1 MPI tasks x 1 OpenMP threads

MPI task timing breakdown:
Section |  min time  |  avg time  |  max time  |%varavg| %total
---------------------------------------------------------------
Pair    | 0          | 0          | 0          |   0.0 |  0.00
Neigh   | 0          | 0          | 0          |   0.0 |  0.00
Comm    | 0          | 0          | 0          |   0.0 |  0.00
Output  | 0          | 0          | 0          |   0.0 |  0.00
Modify  | 0          | 0          | 0          |   0.0 |  0.00
Other   |            | 2.743e-06  |            |       |100.00

Nlocal:           4630 ave        4630 max        4630 min
Histogram: 1 0 0 0 0 0 0 0 0 0
Nghost:          17169 ave       17169 max       17169 min
Histogram: 1 0 0 0 0 0 0 0 0 0
Neighs:         311475 ave      311475 max      311475 min
Histogram: 1 0 0 0 0 0 0 0 0 0

Total # of neighbors = 311475
Ave neighs/atom = 67.273218
Neighbor list builds = 0
Dangerous builds = 0

     change_box all x final -64.19290607558779 107.21193792378779 units box
Changing box ...
  triclinic box = (-64.192906 0 380) to (107.21194 4.4274527 500) with tilt (0 0 0)
    
run 0
WARNING: No fixes with time integration, atoms won't move (src/src/verlet.cpp:60)
Per MPI rank memory allocation (min/avg/max) = 9.635 | 9.635 | 9.635 Mbytes
   Step          Temp          E_pair         E_mol          TotEng         Press     
         0   1.1766422e-06 -16242.679      0             -16242.679     -782.44855    
Loop time of 2.465e-06 on 1 procs for 0 steps with 4630 atoms

405.7% CPU use with 1 MPI tasks x 1 OpenMP threads

MPI task timing breakdown:
Section |  min time  |  avg time  |  max time  |%varavg| %total
---------------------------------------------------------------
Pair    | 0          | 0          | 0          |   0.0 |  0.00
Neigh   | 0          | 0          | 0          |   0.0 |  0.00
Comm    | 0          | 0          | 0          |   0.0 |  0.00
Output  | 0          | 0          | 0          |   0.0 |  0.00
Modify  | 0          | 0          | 0          |   0.0 |  0.00
Other   |            | 2.465e-06  |            |       |100.00

Nlocal:           4630 ave        4630 max        4630 min
Histogram: 1 0 0 0 0 0 0 0 0 0
Nghost:          17169 ave       17169 max       17169 min
Histogram: 1 0 0 0 0 0 0 0 0 0
Neighs:         311475 ave      311475 max      311475 min
Histogram: 1 0 0 0 0 0 0 0 0 0

Total # of neighbors = 311475
Ave neighs/atom = 67.273218
Neighbor list builds = 0
Dangerous builds = 0

     change_box all x final -64.19290603704485 107.21193788524485 units box
Changing box ...
  triclinic box = (-64.192906 0 380) to (107.21194 4.4274527 500) with tilt (0 0 0)
    
run 0
WARNING: No fixes with time integration, atoms won't move (src/src/verlet.cpp:60)
Per MPI rank memory allocation (min/avg/max) = 9.635 | 9.635 | 9.635 Mbytes
   Step          Temp          E_pair         E_mol          TotEng         Press     
         0   1.1766422e-06 -16242.679      0             -16242.679     -782.44858    
Loop time of 1.609e-06 on 1 procs for 0 steps with 4630 atoms

248.6% CPU use with 1 MPI tasks x 1 OpenMP threads

MPI task timing breakdown:
Section |  min time  |  avg time  |  max time  |%varavg| %total
---------------------------------------------------------------
Pair    | 0          | 0          | 0          |   0.0 |  0.00
Neigh   | 0          | 0          | 0          |   0.0 |  0.00
Comm    | 0          | 0          | 0          |   0.0 |  0.00
Output  | 0          | 0          | 0          |   0.0 |  0.00
Modify  | 0          | 0          | 0          |   0.0 |  0.00
Other   |            | 1.609e-06  |            |       |100.00

Nlocal:           4630 ave        4630 max        4630 min
Histogram: 1 0 0 0 0 0 0 0 0 0
Nghost:          17169 ave       17169 max       17169 min
Histogram: 1 0 0 0 0 0 0 0 0 0
Neighs:         311475 ave      311475 max      311475 min
Histogram: 1 0 0 0 0 0 0 0 0 0

Total # of neighbors = 311475
Ave neighs/atom = 67.273218
Neighbor list builds = 0
Dangerous builds = 0

     change_box all x final -64.1929060207672 107.2119378689672 units box
Changing box ...
  triclinic box = (-64.192906 0 380) to (107.21194 4.4274527 500) with tilt (0 0 0)
    
run 0
WARNING: No fixes with time integration, atoms won't move (src/src/verlet.cpp:60)
Per MPI rank memory allocation (min/avg/max) = 9.635 | 9.635 | 9.635 Mbytes
   Step          Temp          E_pair         E_mol          TotEng         Press     
         0   1.1766422e-06 -16242.679      0             -16242.679     -782.44858    
Loop time of 2.661e-06 on 1 procs for 0 steps with 4630 atoms

751.6% CPU use with 1 MPI tasks x 1 OpenMP threads

MPI task timing breakdown:
Section |  min time  |  avg time  |  max time  |%varavg| %total
---------------------------------------------------------------
Pair    | 0          | 0          | 0          |   0.0 |  0.00
Neigh   | 0          | 0          | 0          |   0.0 |  0.00
Comm    | 0          | 0          | 0          |   0.0 |  0.00
Output  | 0          | 0          | 0          |   0.0 |  0.00
Modify  | 0          | 0          | 0          |   0.0 |  0.00
Other   |            | 2.661e-06  |            |       |100.00

Nlocal:           4630 ave        4630 max        4630 min
Histogram: 1 0 0 0 0 0 0 0 0 0
Nghost:          17169 ave       17169 max       17169 min
Histogram: 1 0 0 0 0 0 0 0 0 0
Neighs:         311475 ave      311475 max      311475 min
Histogram: 1 0 0 0 0 0 0 0 0 0

Total # of neighbors = 311475
Ave neighs/atom = 67.273218
Neighbor list builds = 0
Dangerous builds = 0

     change_box all x final -64.19290602258319 107.21193787078319 units box
Changing box ...
  triclinic box = (-64.192906 0 380) to (107.21194 4.4274527 500) with tilt (0 0 0)
    
run 0
WARNING: No fixes with time integration, atoms won't move (src/src/verlet.cpp:60)
Per MPI rank memory allocation (min/avg/max) = 9.635 | 9.635 | 9.635 Mbytes
   Step          Temp          E_pair         E_mol          TotEng         Press     
         0   1.1766422e-06 -16242.679      0             -16242.679     -782.44873    
Loop time of 2.798e-06 on 1 procs for 0 steps with 4630 atoms

500.4% CPU use with 1 MPI tasks x 1 OpenMP threads

MPI task timing breakdown:
Section |  min time  |  avg time  |  max time  |%varavg| %total
---------------------------------------------------------------
Pair    | 0          | 0          | 0          |   0.0 |  0.00
Neigh   | 0          | 0          | 0          |   0.0 |  0.00
Comm    | 0          | 0          | 0          |   0.0 |  0.00
Output  | 0          | 0          | 0          |   0.0 |  0.00
Modify  | 0          | 0          | 0          |   0.0 |  0.00
[...]

239.5% CPU use with 1 MPI tasks x 1 OpenMP threads

MPI task timing breakdown:
Section |  min time  |  avg time  |  max time  |%varavg| %total
---------------------------------------------------------------
Pair    | 0          | 0          | 0          |   0.0 |  0.00
Neigh   | 0          | 0          | 0          |   0.0 |  0.00
Comm    | 0          | 0          | 0          |   0.0 |  0.00
Output  | 0          | 0          | 0          |   0.0 |  0.00
Modify  | 0          | 0          | 0          |   0.0 |  0.00
Other   |            | 1.67e-06   |            |       |100.00

Nlocal:           4630 ave        4630 max        4630 min
Histogram: 1 0 0 0 0 0 0 0 0 0
Nghost:          17178 ave       17178 max       17178 min
Histogram: 1 0 0 0 0 0 0 0 0 0
Neighs:         311473 ave      311473 max      311473 min
Histogram: 1 0 0 0 0 0 0 0 0 0

Total # of neighbors = 311473
Ave neighs/atom = 67.272786
Neighbor list builds = 0
Dangerous builds = 0

     change_box all x final -63.759392949689804 106.77842479788981 units box
Changing box ...
  triclinic box = (-63.759393 0 380) to (106.77842 4.4274527 500) with tilt (0 0 0)
    
run 0
Per MPI rank memory allocation (min/avg/max) = 9.635 | 9.635 | 9.635 Mbytes
   Step          Temp          E_pair         E_mol          TotEng         Press     
         0   1.1766422e-06 -16242.34       0             -16242.34       652.66029    
Loop time of 1.873e-06 on 1 procs for 0 steps with 4630 atoms

213.6% CPU use with 1 MPI tasks x 1 OpenMP threads

MPI task timing breakdown:
Section |  min time  |  avg time  |  max time  |%varavg| %total
---------------------------------------------------------------
Pair    | 0          | 0          | 0          |   0.0 |  0.00
Neigh   | 0          | 0          | 0          |   0.0 |  0.00
Comm    | 0          | 0          | 0          |   0.0 |  0.00
Output  | 0          | 0          | 0          |   0.0 |  0.00
Modify  | 0          | 0          | 0          |   0.0 |  0.00
Other   |            | 1.873e-06  |            |       |100.00

Nlocal:           4630 ave        4630 max        4630 min
Histogram: 1 0 0 0 0 0 0 0 0 0
Nghost:          17178 ave       17178 max       17178 min
Histogram: 1 0 0 0 0 0 0 0 0 0
Neighs:         311473 ave      311473 max      311473 min
Histogram: 1 0 0 0 0 0 0 0 0 0

Total # of neighbors = 311473
Ave neighs/atom = 67.272786
Neighbor list builds = 0
Dangerous builds = 0

     change_box all x final -63.71115367456481 106.73018552276481 units box
Changing box ...
  triclinic box = (-63.711154 0 380) to (106.73019 4.4274527 500) with tilt (0 0 0)
    
run 0
Per MPI rank memory allocation (min/avg/max) = 9.635 | 9.635 | 9.635 Mbytes
   Step          Temp          E_pair         E_mol          TotEng         Press     
         0   1.1766422e-06 -16242.238      0             -16242.238      817.15591    
Loop time of 1.751e-06 on 1 procs for 0 steps with 4630 atoms

228.4% CPU use with 1 MPI tasks x 1 OpenMP threads

MPI task timing breakdown:
Section |  min time  |  avg time  |  max time  |%varavg| %total
---------------------------------------------------------------
Pair    | 0          | 0          | 0          |   0.0 |  0.00
Neigh   | 0          | 0          | 0          |   0.0 |  0.00
Comm    | 0          | 0          | 0          |   0.0 |  0.00
Output  | 0          | 0          | 0          |   0.0 |  0.00
Modify  | 0          | 0          | 0          |   0.0 |  0.00
Other   |            | 1.751e-06  |            |       |100.00

Nlocal:           4630 ave        4630 max        4630 min
Histogram: 1 0 0 0 0 0 0 0 0 0
Nghost:          17178 ave       17178 max       17178 min
Histogram: 1 0 0 0 0 0 0 0 0 0
Neighs:         311473 ave      311473 max      311473 min
Histogram: 1 0 0 0 0 0 0 0 0 0

Total # of neighbors = 311473
Ave neighs/atom = 67.272786
Neighbor list builds = 0
Dangerous builds = 0

     change_box all x final -63.66290313266969 106.68193498086968 units box
Changing box ...
  triclinic box = (-63.662903 0 380) to (106.68193 4.4274527 500) with tilt (0 0 0)
    
run 0
Per MPI rank memory allocation (min/avg/max) = 9.635 | 9.635 | 9.635 Mbytes
   Step          Temp          E_pair         E_mol          TotEng         Press     
         0   1.1766422e-06 -16242.122      0             -16242.122      982.62807    
Loop time of 1.715e-06 on 1 procs for 0 steps with 4630 atoms

233.2% CPU use with 1 MPI tasks x 1 OpenMP threads

MPI task timing breakdown:
Section |  min time  |  avg time  |  max time  |%varavg| %total
---------------------------------------------------------------
Pair    | 0          | 0          | 0          |   0.0 |  0.00
Neigh   | 0          | 0          | 0          |   0.0 |  0.00
Comm    | 0          | 0          | 0          |   0.0 |  0.00
Output  | 0          | 0          | 0          |   0.0 |  0.00
Modify  | 0          | 0          | 0          |   0.0 |  0.00
Other   |            | 1.715e-06  |            |       |100.00

Nlocal:           4630 ave        4630 max        4630 min
Histogram: 1 0 0 0 0 0 0 0 0 0
Nghost:          17178 ave       17178 max       17178 min
Histogram: 1 0 0 0 0 0 0 0 0 0
Neighs:         311473 ave      311473 max      311473 min
Histogram: 1 0 0 0 0 0 0 0 0 0

Total # of neighbors = 311473
Ave neighs/atom = 67.272786
Neighbor list builds = 0
Dangerous builds = 0

     change_box all x final -63.61463915531348 106.63367100351348 units box
Changing box ...
  triclinic box = (-63.614639 0 380) to (106.63367 4.4274527 500) with tilt (0 0 0)
    
run 0
Per MPI rank memory allocation (min/avg/max) = 9.635 | 9.635 | 9.635 Mbytes
   Step          Temp          E_pair         E_mol          TotEng         Press     
         0   1.1766422e-06 -16241.993      0             -16241.993      1149.1659    
Loop time of 2.041e-06 on 1 procs for 0 steps with 4630 atoms

196.0% CPU use with 1 MPI tasks x 1 OpenMP threads

MPI task timing breakdown:
Section |  min time  |  avg time  |  max time  |%varavg| %total
---------------------------------------------------------------
Pair    | 0          | 0          | 0          |   0.0 |  0.00
Neigh   | 0          | 0          | 0          |   0.0 |  0.00
Comm    | 0          | 0          | 0          |   0.0 |  0.00
Output  | 0          | 0          | 0          |   0.0 |  0.00
Modify  | 0          | 0          | 0          |   0.0 |  0.00
Other   |            | 2.041e-06  |            |       |100.00

Nlocal:           4630 ave        4630 max        4630 min
Histogram: 1 0 0 0 0 0 0 0 0 0
Nghost:          17178 ave       17178 max       17178 min
Histogram: 1 0 0 0 0 0 0 0 0 0
Neighs:         311473 ave      311473 max      311473 min
Histogram: 1 0 0 0 0 0 0 0 0 0

Total # of neighbors = 311473
Ave neighs/atom = 67.272786
Neighbor list builds = 0
Dangerous builds = 0

     change_box all x final -63.56636472621993 106.58539657441993 units box
Changing box ...
  triclinic box = (-63.566365 0 380) to (106.5854 4.4274527 500) with tilt (0 0 0)
    
run 0
Per MPI rank memory allocation (min/avg/max) = 9.635 | 9.635 | 9.635 Mbytes
   Step          Temp          E_pair         E_mol          TotEng         Press     
         0   1.1766422e-06 -16241.851      0             -16241.851      1316.6876    
Loop time of 3.148e-06 on 1 procs for 0 steps with 4630 atoms

222.4% CPU use with 1 MPI tasks x 1 OpenMP threads

MPI task timing breakdown:
Section |  min time  |  avg time  |  max time  |%varavg| %total
---------------------------------------------------------------
Pair    | 0          | 0          | 0          |   0.0 |  0.00
Neigh   | 0          | 0          | 0          |   0.0 |  0.00
Comm    | 0          | 0          | 0          |   0.0 |  0.00
Output  | 0          | 0          | 0          |   0.0 |  0.00
Modify  | 0          | 0          | 0          |   0.0 |  0.00
Other   |            | 3.148e-06  |            |       |100.00

Nlocal:           4630 ave        4630 max        4630 min
Histogram: 1 0 0 0 0 0 0 0 0 0
Nghost:          17183 ave       17183 max       17183 min
Histogram: 1 0 0 0 0 0 0 0 0 0
Neighs:         311474 ave      311474 max      311474 min
Histogram: 1 0 0 0 0 0 0 0 0 0

Total # of neighbors = 311474
Ave neighs/atom = 67.273002
Neighbor list builds = 0
Dangerous builds = 0

     change_box all x final -63.51807703362771 106.5371088818277 units box
Changing box ...
  triclinic box = (-63.518077 0 380) to (106.53711 4.4274527 500) with tilt (0 0 0)
    
run 0
Per MPI rank memory allocation (min/avg/max) = 9.635 | 9.635 | 9.635 Mbytes
   Step          Temp          E_pair         E_mol          TotEng         Press     
         0   1.1766422e-06 -16241.696      0             -16241.696      1485.2823    
Loop time of 1.631e-06 on 1 procs for 0 steps with 4630 atoms

183.9% CPU use with 1 MPI tasks x 1 OpenMP threads

MPI task timing breakdown:
Section |  min time  |  avg time  |  max time  |%varavg| %total
---------------------------------------------------------------
Pair    | 0          | 0          | 0          |   0.0 |  0.00
Neigh   | 0          | 0          | 0          |   0.0 |  0.00
Comm    | 0          | 0          | 0          |   0.0 |  0.00
Output  | 0          | 0          | 0          |   0.0 |  0.00
Modify  | 0          | 0          | 0          |   0.0 |  0.00
Other   |            | 1.631e-06  |            |       |100.00

Nlocal:           4630 ave        4630 max        4630 min
Histogram: 1 0 0 0 0 0 0 0 0 0
Nghost:          17183 ave       17183 max       17183 min
Histogram: 1 0 0 0 0 0 0 0 0 0
Neighs:         311474 ave      311474 max      311474 min
Histogram: 1 0 0 0 0 0 0 0 0 0

Total # of neighbors = 311474
Ave neighs/atom = 67.273002
Neighbor list builds = 0
Dangerous builds = 0

     change_box all x final -63.46977883318029 106.4888106813803 units box
Changing box ...
  triclinic box = (-63.469779 0 380) to (106.48881 4.4274527 500) with tilt (0 0 0)
    
run 0
Per MPI rank memory allocation (min/avg/max) = 9.635 | 9.635 | 9.635 Mbytes
   Step          Temp          E_pair         E_mol          TotEng         Press     
         0   1.1766422e-06 -16241.526      0             -16241.526      1654.8892    
Loop time of 1.83e-06 on 1 procs for 0 steps with 4630 atoms

218.6% CPU use with 1 MPI tasks x 1 OpenMP threads

MPI task timing breakdown:
Section |  min time  |  avg time  |  max time  |%varavg| %total
---------------------------------------------------------------
Pair    | 0          | 0          | 0          |   0.0 |  0.00
Neigh   | 0          | 0          | 0          |   0.0 |  0.00
Comm    | 0          | 0          | 0          |   0.0 |  0.00
Output  | 0          | 0          | 0          |   0.0 |  0.00
Modify  | 0          | 0          | 0          |   0.0 |  0.00
Other   |            | 1.83e-06   |            |       |100.00

Nlocal:           4630 ave        4630 max        4630 min
Histogram: 1 0 0 0 0 0 0 0 0 0
Nghost:          17193 ave       17193 max       17193 min
Histogram: 1 0 0 0 0 0 0 0 0 0
Neighs:         311476 ave      311476 max      311476 min
Histogram: 1 0 0 0 0 0 0 0 0 0

Total # of neighbors = 311476
Ave neighs/atom = 67.273434
Neighbor list builds = 0
Dangerous builds = 0

     change_box all x final -63.42146727449368 106.44049912269368 units box
Changing box ...
  triclinic box = (-63.421467 0 380) to (106.4405 4.4274527 500) with tilt (0 0 0)
    
run 0
Per MPI rank memory allocation (min/avg/max) = 9.635 | 9.635 | 9.635 Mbytes
   Step          Temp          E_pair         E_mol          TotEng         Press     
         0   1.1766422e-06 -16241.344      0             -16241.344      1825.5888    
Loop time of 1.884e-06 on 1 procs for 0 steps with 4630 atoms

212.3% CPU use with 1 MPI tasks x 1 OpenMP threads

MPI task timing breakdown:
Section |  min time  |  avg time  |  max time  |%varavg| %total
---------------------------------------------------------------
Pair    | 0          | 0          | 0          |   0.0 |  0.00
Neigh   | 0          | 0          | 0          |   0.0 |  0.00
Comm    | 0          | 0          | 0          |   0.0 |  0.00
Output  | 0          | 0          | 0          |   0.0 |  0.00
Modify  | 0          | 0          | 0          |   0.0 |  0.00
Other   |            | 1.884e-06  |            |       |100.00

Nlocal:           4630 ave        4630 max        4630 min
Histogram: 1 0 0 0 0 0 0 0 0 0
Nghost:          17196 ave       17196 max       17196 min
Histogram: 1 0 0 0 0 0 0 0 0 0
Neighs:         311476 ave      311476 max      311476 min
Histogram: 1 0 0 0 0 0 0 0 0 0

Total # of neighbors = 311476
Ave neighs/atom = 67.273434
Neighbor list builds = 0
Dangerous builds = 0

     change_box all x final -63.37314484199139 106.39217669019139 units box
Changing box ...
  triclinic box = (-63.373145 0 380) to (106.39218 4.4274527 500) with tilt (0 0 0)
    
run 0
Per MPI rank memory allocation (min/avg/max) = 9.635 | 9.635 | 9.635 Mbytes
   Step          Temp          E_pair         E_mol          TotEng         Press     
         0   1.1766422e-06 -16241.147      0             -16241.147      1997.3324    
Loop time of 1.724e-06 on 1 procs for 0 steps with 4630 atoms

174.0% CPU use with 1 MPI tasks x 1 OpenMP threads

MPI task timing breakdown:
Section |  min time  |  avg time  |  max time  |%varavg| %total
---------------------------------------------------------------
Pair    | 0          | 0          | 0          |   0.0 |  0.00
Neigh   | 0          | 0          | 0          |   0.0 |  0.00
Comm    | 0          | 0          | 0          |   0.0 |  0.00
Output  | 0          | 0          | 0          |   0.0 |  0.00
Modify  | 0          | 0          | 0          |   0.0 |  0.00
Other   |            | 1.724e-06  |            |       |100.00

Nlocal:           4630 ave        4630 max        4630 min
Histogram: 1 0 0 0 0 0 0 0 0 0
Nghost:          17198 ave       17198 max       17198 min
Histogram: 1 0 0 0 0 0 0 0 0 0
Neighs:         311477 ave      311477 max      311477 min
Histogram: 1 0 0 0 0 0 0 0 0 0

Total # of neighbors = 311477
Ave neighs/atom = 67.27365
Neighbor list builds = 0
Dangerous builds = 0

     change_box all x final -63.32480925552943 106.34384110372943 units box
Changing box ...
  triclinic box = (-63.324809 0 380) to (106.34384 4.4274527 500) with tilt (0 0 0)
    
run 0
Per MPI rank memory allocation (min/avg/max) = 9.635 | 9.635 | 9.635 Mbytes
   Step          Temp          E_pair         E_mol          TotEng         Press     
         0   1.1766422e-06 -16240.937      0             -16240.937      2170.1892    
Loop time of 1.787e-06 on 1 procs for 0 steps with 4630 atoms

223.8% CPU use with 1 MPI tasks x 1 OpenMP threads

MPI task timing breakdown:
Section |  min time  |  avg time  |  max time  |%varavg| %total
---------------------------------------------------------------
Pair    | 0          | 0          | 0          |   0.0 |  0.00
Neigh   | 0          | 0          | 0          |   0.0 |  0.00
Comm    | 0          | 0          | 0          |   0.0 |  0.00
Output  | 0          | 0          | 0          |   0.0 |  0.00
Modify  | 0          | 0          | 0          |   0.0 |  0.00
Other   |            | 1.787e-06  |            |       |100.00

Nlocal:           4630 ave        4630 max        4630 min
Histogram: 1 0 0 0 0 0 0 0 0 0
Nghost:          17201 ave       17201 max       17201 min
Histogram: 1 0 0 0 0 0 0 0 0 0
Neighs:         311479 ave      311479 max      311479 min
Histogram: 1 0 0 0 0 0 0 0 0 0

Total # of neighbors = 311479
Ave neighs/atom = 67.274082
Neighbor list builds = 0
Dangerous builds = 0

     change_box all x final -63.27646290401867 106.29549475221867 units box
Changing box ...
  triclinic box = (-63.276463 0 380) to (106.29549 4.4274527 500) with tilt (0 0 0)
    
run 0
Per MPI rank memory allocation (min/avg/max) = 9.635 | 9.635 | 9.635 Mbytes
   Step          Temp          E_pair         E_mol          TotEng         Press     
         0   1.1766422e-06 -16240.713      0             -16240.713      2344.1145    
Loop time of 1.969e-06 on 1 procs for 0 steps with 4630 atoms

152.4% CPU use with 1 MPI tasks x 1 OpenMP threads

MPI task timing breakdown:
Section |  min time  |  avg time  |  max time  |%varavg| %total
---------------------------------------------------------------
Pair    | 0          | 0          | 0          |   0.0 |  0.00
Neigh   | 0          | 0          | 0          |   0.0 |  0.00
Comm    | 0          | 0          | 0          |   0.0 |  0.00
Output  | 0          | 0          | 0          |   0.0 |  0.00
Modify  | 0          | 0          | 0          |   0.0 |  0.00
Other   |            | 1.969e-06  |            |       |100.00

Nlocal:           4630 ave        4630 max        4630 min
Histogram: 1 0 0 0 0 0 0 0 0 0
Nghost:          17218 ave       17218 max       17218 min
Histogram: 1 0 0 0 0 0 0 0 0 0
Neighs:         311484 ave      311484 max      311484 min
Histogram: 1 0 0 0 0 0 0 0 0 0

Total # of neighbors = 311484
Ave neighs/atom = 67.275162
Neighbor list builds = 0
Dangerous builds = 0

     change_box all x final -63.22810397692532 106.24713582512533 units box
Changing box ...
  triclinic box = (-63.228104 0 380) to (106.24714 4.4274527 500) with tilt (0 0 0)
    
run 0
Per MPI rank memory allocation (min/avg/max) = 9.635 | 9.635 | 9.635 Mbytes
   Step          Temp          E_pair         E_mol          TotEng         Press     
         0   1.1766422e-06 -16240.475      0             -16240.475      2519.1669    
Loop time of 1.665e-06 on 1 procs for 0 steps with 4630 atoms

240.2% CPU use with 1 MPI tasks x 1 OpenMP threads

MPI task timing breakdown:
Section |  min time  |  avg time  |  max time  |%varavg| %total
---------------------------------------------------------------
Pair    | 0          | 0          | 0          |   0.0 |  0.00
Neigh   | 0          | 0          | 0          |   0.0 |  0.00
Comm    | 0          | 0          | 0          |   0.0 |  0.00
Output  | 0          | 0          | 0          |   0.0 |  0.00
Modify  | 0          | 0          | 0          |   0.0 |  0.00
Other   |            | 1.665e-06  |            |       |100.00

Nlocal:           4630 ave        4630 max        4630 min
Histogram: 1 0 0 0 0 0 0 0 0 0
Nghost:          17236 ave       17236 max       17236 min
Histogram: 1 0 0 0 0 0 0 0 0 0
Neighs:         311489 ave      311489 max      311489 min
Histogram: 1 0 0 0 0 0 0 0 0 0

Total # of neighbors = 311489
Ave neighs/atom = 67.276242
Neighbor list builds = 0
Dangerous builds = 0

     change_box all x final -63.17973478303434 106.19876663123434 units box
Changing box ...
  triclinic box = (-63.179735 0 380) to (106.19877 4.4274527 500) with tilt (0 0 0)
    
run 0
Per MPI rank memory allocation (min/avg/max) = 9.635 | 9.635 | 9.635 Mbytes
   Step          Temp          E_pair         E_mol          TotEng         Press     
         0   1.1766422e-06 -16240.222      0             -16240.222      2695.3066    
Loop time of 1.673e-06 on 1 procs for 0 steps with 4630 atoms

239.1% CPU use with 1 MPI tasks x 1 OpenMP threads

MPI task timing breakdown:
Section |  min time  |  avg time  |  max time  |%varavg| %total
---------------------------------------------------------------
Pair    | 0          | 0          | 0          |   0.0 |  0.00
Neigh   | 0          | 0          | 0          |   0.0 |  0.00
Comm    | 0          | 0          | 0          |   0.0 |  0.00
Output  | 0          | 0          | 0          |   0.0 |  0.00
Modify  | 0          | 0          | 0          |   0.0 |  0.00
Other   |            | 1.673e-06  |            |       |100.00

Nlocal:           4630 ave        4630 max        4630 min
Histogram: 1 0 0 0 0 0 0 0 0 0
Nghost:          17261 ave       17261 max       17261 min
Histogram: 1 0 0 0 0 0 0 0 0 0
Neighs:         311494 ave      311494 max      311494 min
Histogram: 1 0 0 0 0 0 0 0 0 0

Total # of neighbors = 311494
Ave neighs/atom = 67.277322
Neighbor list builds = 0
Dangerous builds = 0
