# LAMMPS data file written by OVITO Basic 3.8.4

18520 atoms
1 atom types

-64.3409885018 107.36002035 xlo xhi
-4.4274527101 13.2823581302 ylo yhi
380.0 500.0 zlo zhi

Masses

1 63.546  # Cu

Atoms  # atomic

11013 1 -46.3634921741 -2.516995211 399.8175914861 0 0 0
40618 1 -40.6981302905 -3.2572165497 399.877228881 0 0 0
11052 1 -43.9604389432 -1.8174693346 400.2558885372 0 0 0
10973 1 -49.5975151003 -1.0640979695 400.2196215903 0 0 0
11082 1 -50.495860502 -3.287188072 401.0565182698 0 0 0
40600 1 -38.2967862596 -2.5566530019 400.3174083021 0 0 0
10727 1 -41.5730276709 -1.0590035833 400.7030322177 0 0 0
10934 1 -52.8873448739 -4.0361243976 400.6150102471 0 0 0
11072 1 -58.5236588609 -3.3412786791 400.5216439535 0 0 0
40608 1 -35.909892917 -1.7973562014 400.7652796128 0 0 0
11003 1 -56.1604536413 -2.5380423408 400.9986893639 0 0 0
11035 1 -60.9193807352 -4.029508026 400.0593622507 0 0 0
10944 1 -44.8310399342 -4.0459473431 401.1035954067 0 0 0
11873 1 -57.9667812263 -1.8157401021 415.0782696889 0 0 0
12138 1 -46.6346700549 -3.2907931778 415.2149489912 0 0 0
11992 1 -50.7814202192 -4.0282008462 416.576934735 0 0 0
41682 1 -37.9272478426 -2.5545228519 418.1399360806 0 0 0
11787 1 -40.9678344651 -4.029656864 415.2809568847 0 0 0
12092 1 -52.3022367971 -2.5521494915 415.1462085522 0 0 0
40619 1 -36.1383018758 -3.2897945328 404.035277183 0 0 0
10279 1 -41.1537312847 -1.8141326555 406.336206457 0 0 0
11993 1 -52.530967182 -4.028832371 418.4391508664 0 0 0
12130 1 -56.4464735487 -3.2914586807 416.5091644882 0 0 0
40610 1 -39.4041563352 -1.8114570572 404.478379436 0 0 0
12031 1 -47.5101465627 -1.0769319758 416.1456626547 0 0 0
11043 1 -53.7590593979 -1.8376779524 401.4630613234 0 0 0
40621 1 -39.6328571757 -3.2901389549 407.7634995702 0 0 0
12032 1 -49.2606063346 -1.0769094666 418.0073148881 0 0 0
12099 1 -49.9062585297 -1.8144199975 415.6461631019 0 0 0
12179 1 -46.8647283972 -0.3393630737 418.5065079794 0 0 0
12042 1 -41.197881089 -1.0783083545 418.5729511656 0 0 0
41699 1 -40.3226959412 -3.2920828303 417.6417334188 0 0 0
40597 1 -40.5077742053 -1.0767537914 408.6965352649 0 0 0
40601 1 -40.0493073999 -2.5479464858 402.1436187677 0 0 0
11985 1 -58.8408983931 -4.0302452158 416.0102085681 0 0 0
12023 1 -55.5722070313 -1.0770567524 415.577569611 0 0 0
10598 1 -41.382544403 -3.2906320215 409.6279634145 0 0 0
12093 1 -59.7150765455 -1.8172213264 416.9422957693 0 0 0
12070 1 -44.2387471444 -2.5533769017 415.7137508936 0 0 0
12024 1 -57.3206905795 -1.0784103338 417.4410145444 0 0 0
12025 1 -59.0691797855 -1.0796742085 419.304801179 0 0 0
12056 1 -62.109336624 -2.5560523376 416.4438885364 0 0 0
12178 1 -45.1141411681 -0.3395349065 416.6446830624 0 0 0
40589 1 -39.2176123399 -4.0295253317 413.4181657867 0 0 0
40598 1 -35.9477448878 -1.0778532764 412.9841537798 0 0 0
40585 1 -38.5339027962 -4.0324688315 403.5311706386 0 0 0
41665 1 -36.4069191037 -4.0306817322 419.5694889372 0 0 0
12150 1 -42.0730700269 -3.2919675327 419.504111398 0 0 0
10964 1 -59.4030061142 -1.0878638936 401.4727316112 0 0 0
12139 1 -48.3854750556 -3.2905822033 417.0764349949 0 0 0
12094 1 -61.4636132687 -1.8184045511 418.8063830728 0 0 0
12112 1 -45.3440173533 -1.8156143523 419.9364760566 0 0 0
10935 1 -54.6364438531 -4.0296908684 402.443967057 0 0 0
10936 1 -56.391419382 -4.0341329841 404.278213869 0 0 0
10937 1 -58.1547827435 -4.0226958869 406.1301324356 0 0 0
10938 1 -59.9069654899 -4.0240092245 407.9867935758 0 0 0
10939 1 -61.6531035728 -4.0286459603 409.8521125963 0 0 0
10940 1 -63.4005753186 -4.031186008 411.7179797824 0 0 0
10945 1 -46.5821624052 -4.0241650777 402.9730272299 0 0 0
10946 1 -48.3364875111 -4.0234325801 404.843671879 0 0 0
10947 1 -50.0878541695 -4.0291507098 406.7025593182 0 0 0
10948 1 -51.8390411004 -4.0302908776 408.5637142493 0 0 0
10949 1 -53.5923301056 -4.0283879804 410.4231462993 0 0 0
10950 1 -55.3437111925 -4.027614014 412.2835050047 0 0 0
10951 1 -57.092639805 -4.0286952448 414.1462883565 0 0 0
10952 1 -42.0271658842 -4.0277098856 407.2675238123 0 0 0
10953 1 -43.7777616806 -4.0281089026 409.1307105291 0 0 0
10954 1 -45.5284535398 -4.0285171397 410.9928871266 0 0 0
10955 1 -47.2795098304 -4.0285533744 412.8545722407 0 0 0
40588 1 -37.467734889 -4.0291092172 411.5549077022 0 0 0
12057 1 -63.8580378081 -2.5570360567 418.3082354054 0 0 0
10965 1 -61.206534326 -1.0569466936 403.2516823409 0 0 0
10966 1 -62.9463997124 -1.0752766405 405.1142670262 0 0 0
12100 1 -51.6563074673 -1.8147220746 417.5079106611 0 0 0
10974 1 -51.3815428557 -1.0928307415 401.9738606902 0 0 0
10975 1 -53.12193157 -1.0888454463 403.8287745939 0 0 0
10976 1 -54.8733637386 -1.0818878638 405.6998125248 0 0 0
10977 1 -56.6324690929 -1.075557338 407.5590992799 0 0 0
10978 1 -58.3852727944 -1.0741966864 409.4188184137 0 0 0
10979 1 -60.1330347123 -1.0768370105 411.2834195288 0 0 0
10980 1 -61.8808122915 -1.0791150005 413.1486156244 0 0 0
10982 1 -43.3139952145 -1.0791018911 402.5639175505 0 0 0
10983 1 -45.0668397048 -1.0736789775 404.4174696042 0 0 0
10984 1 -46.8188918191 -1.0749284229 406.2727997523 0 0 0
10985 1 -48.5686531647 -1.0762880312 408.1338681054 0 0 0
10986 1 -50.3196607659 -1.0771327771 409.9951793766 0 0 0
10987 1 -52.0719929658 -1.0764158367 411.8548685395 0 0 0
10988 1 -53.8230182311 -1.0761486291 413.7152519771 0 0 0
10989 1 -42.2578716543 -1.0771613142 410.559418084 0 0 0
10990 1 -44.0083073394 -1.077301359 412.4220625797 0 0 0
10991 1 -45.7591548133 -1.0772112108 414.2841364467 0 0 0
11004 1 -57.9028851209 -2.5711884293 402.8583316053 0 0 0
11005 1 -59.6803091481 -2.5424178272 404.6920138127 0 0 0
11006 1 -61.4280124637 -2.5479101187 406.5517675441 0 0 0
11007 1 -63.1723386974 -2.5539313556 408.4205544642 0 0 0
11014 1 -48.120244875 -2.5590842158 401.5688765146 0 0 0
11015 1 -49.8621907382 -2.5510452665 403.4076563069 0 0 0
11016 1 -51.6046732791 -2.5550889434 405.2747465774 0 0 0
11017 1 -53.3569918646 -2.5556162774 407.1359694958 0 0 0
11018 1 -55.1126148589 -2.5523877557 408.9925183513 0 0 0
11019 1 -56.8645143388 -2.5511637413 410.851919354 0 0 0
11020 1 -58.6129756248 -2.552770649 412.7150814992 0 0 0
11021 1 -60.3609641755 -2.5546441808 414.5794582586 0 0 0
11022 1 -41.8008893405 -2.5521760982 403.9734867477 0 0 0
11023 1 -43.5479038087 -2.5522953189 405.8358810216 0 0 0
11024 1 -45.297911787 -2.5516734662 407.7001688907 0 0 0
11025 1 -47.048454906 -2.5522641057 409.5633356331 0 0 0
11026 1 -48.7997457773 -2.5526749939 411.4247806273 0 0 0
11027 1 -50.551468911 -2.5522499341 413.2852722151 0 0 0
11029 1 -42.4880764941 -2.5534744271 413.8515431769 0 0 0
40620 1 -37.8846066916 -3.2898831005 405.8976661529 0 0 0
11036 1 -62.7402376149 -4.0103356709 401.8176533264 0 0 0
11044 1 -55.50720852 -1.8206317972 403.3345881959 0 0 0
11045 1 -57.2707924292 -1.8151721649 405.2006409168 0 0 0
11046 1 -59.0320049679 -1.8085757833 407.054273005 0 0 0
11047 1 -60.7796628542 -1.8128194083 408.9186264363 0 0 0
11048 1 -62.5265316735 -1.8164175466 410.7850151336 0 0 0
12043 1 -42.9482381723 -1.0781771831 420.43524261 0 0 0
40624 1 -36.8225291453 -3.2917876219 413.9159256027 0 0 0
11053 1 -45.7104664409 -1.8101671471 402.0840514257 0 0 0
11054 1 -47.4654573646 -1.8120219746 403.9117233009 0 0 0
11055 1 -49.2133941363 -1.8126333723 405.7714268165 0 0 0
11056 1 -50.9625625185 -1.8158737755 407.6349710889 0 0 0
11057 1 -52.7155610696 -1.8153995302 409.4947159063 0 0 0
11058 1 -54.4684383377 -1.8139056468 411.3534398001 0 0 0
11059 1 -56.2183876564 -1.8142512269 413.2148310838 0 0 0
11061 1 -42.9030273508 -1.8146388925 408.1985449031 0 0 0
11062 1 -44.6532013413 -1.8146978982 410.0613912822 0 0 0
11063 1 -46.4039122462 -1.8148810826 411.9237504676 0 0 0
11064 1 -48.1551961712 -1.8146911681 413.7851077613 0 0 0
11073 1 -60.3136132989 -3.2789585492 402.3397269995 0 0 0
11074 1 -62.0774731507 -3.2804818128 404.1762429789 0 0 0
11075 1 -63.8167451142 -3.2916921242 406.0533563151 0 0 0
41681 1 -36.1772652179 -2.5543653404 416.2769474498 0 0 0
11083 1 -52.2414036701 -3.3010325225 402.9216802659 0 0 0
11084 1 -53.9949580621 -3.295277337 404.779323027 0 0 0
11085 1 -55.7537876912 -3.2921152324 406.6335900645 0 0 0
11086 1 -57.5102596013 -3.2874114598 408.4894487413 0 0 0
11087 1 -59.2594725245 -3.2890997773 410.3512984736 0 0 0
11088 1 -61.0069006636 -3.291816964 412.2161533941 0 0 0
11089 1 -62.7549880645 -3.2936381878 414.0811145509 0 0 0
11090 1 -42.4603525643 -3.2962020867 401.6243784786 0 0 0
11091 1 -44.1959909182 -3.294863466 403.470507691 0 0 0
11092 1 -45.9429914762 -3.2882810742 405.3384014062 0 0 0
11093 1 -47.6932218984 -3.288950212 407.2032127902 0 0 0
11094 1 -49.4439525316 -3.2908864771 409.0644231205 0 0 0
11095 1 -51.1959156112 -3.2907335184 410.9246659478 0 0 0
11096 1 -52.9477841492 -3.2899025847 412.7845926911 0 0 0
11098 1 -43.1329554835 -3.2909086274 411.4909612766 0 0 0
11099 1 -44.8836638063 -3.2910094513 413.3532517103 0 0 0
12004 1 -44.4688483367 -4.0293870806 419.0054285002 0 0 0
12033 1 -51.0102449903 -1.0774071972 419.8696168116 0 0 0
40596 1 -38.7577847442 -1.0753566597 406.833703498 0 0 0
40584 1 -36.7977741013 -4.0347097399 401.6862812106 0 0 0
11987 1 -62.3379728295 -4.0326149469 419.7383949451 0 0 0
41683 1 -39.6774318476 -2.5545042094 420.0025854868 0 0 0
12132 1 -59.9434910144 -3.2939544275 420.2367033546 0 0 0
40613 1 -36.593107752 -1.8151455797 410.6228784879 0 0 0
40595 1 -37.0066712182 -1.073627861 404.9687111118 0 0 0
12627 1 -54.69777135 -3.2902382305 414.6461011025 0 0 0
12625 1 -49.0308124284 -4.0282249681 414.7156402126 0 0 0
12169 1 -54.9260197992 -0.3397498376 417.9400015428 0 0 0
12626 1 -63.6292365948 -1.080536986 415.0135079302 0 0 0
10311 1 -40.7377227606 -2.5533456951 411.9887909923 0 0 0
40586 1 -40.2784368842 -4.026920638 405.4003852899 0 0 0
12168 1 -53.1770679239 -0.3387029167 416.0772290714 0 0 0
12072 1 -47.739820345 -2.5531221783 419.4375110731 0 0 0
40615 1 -40.0926839288 -1.8158915828 414.3495895906 0 0 0
12110 1 -41.843051575 -1.8159054671 416.2121986375 0 0 0
41672 1 -39.447559239 -1.0783643509 416.7104177179 0 0 0
12061 1 -54.0516302706 -2.5529094636 417.0084536904 0 0 0
40604 1 -38.9878512428 -2.5530211107 410.1253553383 0 0 0
12003 1 -42.7183180719 -4.0295686202 417.1433359132 0 0 0
41709 1 -38.8023300262 -0.3408047049 419.0712877686 0 0 0
12140 1 -50.1355224757 -3.2908204341 418.9383748171 0 0 0
41698 1 -38.5724690014 -3.2920487596 415.7790349098 0 0 0
40614 1 -38.3426550344 -1.8156575999 412.4864843054 0 0 0
12071 1 -45.9894850043 -2.553145933 417.5755892722 0 0 0
11986 1 -60.5893168755 -4.0315806003 417.87431084 0 0 0
12101 1 -53.4054613859 -1.815593506 419.3705830395 0 0 0
40609 1 -37.6517684202 -1.817131745 402.625324295 0 0 0
41671 1 -37.6974739386 -1.078230864 414.8474979047 0 0 0
12111 1 -43.593600427 -1.8157467132 418.074406365 0 0 0
12131 1 -58.1949214115 -3.2927963837 418.3728606351 0 0 0
12062 1 -55.8003394164 -2.5540899555 418.8716362222 0 0 0
40603 1 -37.238828071 -2.5524738773 408.261335371 0 0 0
11994 1 -54.2798773229 -4.0298532317 420.3021483231 0 0 0
11135 1 -41.6129008707 -0.339731464 412.9202087249 0 0 0
12180 1 -48.6147432068 -0.3395403471 420.368642777 0 0 0
12170 1 -56.6746284893 -0.340965614 419.8034166036 0 0 0
40587 1 -35.7183048115 -4.0283661523 409.6909588785 0 0 0
11988 1 -64.086811772 -4.0333975141 421.6024451511 0 0 0
41695 1 -36.2203777606 -1.8181144943 428.5155527321 0 0 0
11396 1 -40.7820920183 -1.8169163572 424.2260782159 0 0 0
13480 1 -50.6325954078 -1.0819707187 437.7659820374 0 0 0
13616 1 107.3454046327 -0.3461939312 437.1388971025 -1 0 0
13519 1 -45.613849328 -2.5568917797 435.4690421705 0 0 0
13628 1 -48.2376282233 -0.3439702779 438.2641003837 0 0 0
41675 1 -38.3865330146 -1.0794217059 424.7245886738 0 0 0
41667 1 -39.9070800169 -4.0306499095 423.2948083671 0 0 0
41680 1 -39.0740015042 -1.0809294036 434.6024912485 0 0 0
13531 1 -41.0524278002 -2.5577207694 439.7584356231 0 0 0
41712 1 -35.991049092 -0.3418974863 425.2230099923 0 0 0
13562 1 -46.7172370499 -1.8200251021 439.693877988 0 0 0
12181 1 -50.3641609286 -0.3401151244 422.2312984545 0 0 0
41676 1 -40.1364371105 -1.0794493206 426.587232606 0 0 0
13034 1 -48.0089232958 -3.2948177928 434.9708386791 0 0 0
12028 1 -64.3155304115 -1.0822488114 424.8963840914 0 0 0
13521 1 -49.1122342369 -2.5579835996 439.1957920317 0 0 0
12141 1 -51.88483436 -3.2915349753 420.8010071047 0 0 0
13440 1 -53.9020483286 -4.0340898541 438.1995714933 0 0 0
13620 1 -56.2968281293 -0.344799892 437.7014804036 0 0 0
13449 1 -42.3440404378 -4.0325583142 435.0356617199 0 0 0
11995 1 -56.0286047507 -4.0309380757 422.1655340384 0 0 0
11996 1 -57.7773482603 -4.031939569 424.0290741984 0 0 0
11997 1 -59.5261558815 -4.0328230716 425.892678037 0 0 0
11998 1 -61.2750259078 -4.0335948977 427.7563137233 0 0 0
11999 1 -63.0239426367 -4.0342753374 429.6199704212 0 0 0
43118 1 -36.9077187626 -1.8195651814 438.3936129308 0 0 0
12005 1 -46.2190745251 -4.029366672 420.8675660674 0 0 0
12006 1 -47.968805083 -4.0296721789 422.7300445325 0 0 0
12007 1 -49.7181186906 -4.0302627247 424.592915711 0 0 0
12008 1 -51.4671975283 -4.0310050317 426.4560716363 0 0 0
12009 1 -53.216178164 -4.0317922019 428.3193951475 0 0 0
12010 1 -54.9651275582 -4.0325688975 430.1828138115 0 0 0
12011 1 -56.7140703866 -4.0333140771 432.0462906606 0 0 0
12012 1 -58.4630122205 -4.0340246092 433.9098075614 0 0 0
12013 1 -41.6570542577 -4.0306640089 425.1573591333 0 0 0
12014 1 -43.4067940386 -4.030833831 427.0200493355 0 0 0
12015 1 -45.1562925292 -4.0311771127 428.8829469288 0 0 0
12016 1 -46.9056072224 -4.0316558854 430.7460401026 0 0 0
12017 1 -48.6548031176 -4.0322195646 432.6092852264 0 0 0
12018 1 -50.4039259098 -4.0328286013 434.4726408648 0 0 0
13589 1 -49.758068799 -3.2953985957 436.8342278604 0 0 0
12026 1 -60.8178281978 -1.0807233339 421.1686581284 0 0 0
12027 1 -62.5666232124 -1.0815686587 423.0325241372 0 0 0
12034 1 -52.7593181291 -1.0782672181 421.7325380535 0 0 0
12035 1 -54.5081691652 -1.0792389966 423.5958168115 0 0 0
12036 1 -56.2569844593 -1.0801811439 425.4592617053 0 0 0
12037 1 -58.005826838 -1.0810455273 427.3227841164 0 0 0
12038 1 -59.7547070909 -1.081826412 429.1863485914 0 0 0
12039 1 -61.5036180901 -1.0825349596 431.0499415836 0 0 0
12040 1 -63.2525461219 -1.0831899484 432.9135599504 0 0 0
13490 1 -40.8234929892 -1.0812336517 436.4655197058 0 0 0
12044 1 -44.69836274 -1.0781663585 422.2975566724 0 0 0
12045 1 -46.4480997719 -1.0784108841 424.1601239958 0 0 0
12046 1 -48.1974864975 -1.0788993748 426.0230061162 0 0 0
12047 1 -49.9466516589 -1.0795396174 427.8861380612 0 0 0
12048 1 -51.6957056936 -1.0802452237 429.7494317275 0 0 0
12049 1 -53.4447104001 -1.0809643742 431.6128249458 0 0 0
12050 1 -55.1936929713 -1.0816727776 433.4762821997 0 0 0
12052 1 -41.8861619193 -1.0795976888 428.4499770743 0 0 0
12053 1 -43.6356894771 -1.079891359 430.3128898689 0 0 0
12054 1 -45.3850544494 -1.0803096111 432.1759753357 0 0 0
12055 1 -47.134304112 -1.0808160597 434.0392062524 0 0 0
12064 1 -59.2976237788 -2.556308092 422.598879435 0 0 0
12065 1 -61.0464123075 -2.557185773 424.4625989212 0 0 0
12066 1 -62.7952888448 -2.5579243574 426.3263335251 0 0 0
13600 1 -41.6982288359 -3.2951455881 437.3970550226 0 0 0
41686 1 -38.6158466874 -2.5556705073 428.0170807933 0 0 0
12073 1 -49.4895192779 -2.5535118744 421.2998992487 0 0 0
12074 1 -51.2387279948 -2.5542272532 423.162779971 0 0 0
12075 1 -52.9876994653 -2.5550822652 425.0259828541 0 0 0
12076 1 -54.7365972442 -2.5559505782 426.889355831 0 0 0
12077 1 -56.4854896483 -2.5567775584 428.7528168777 0 0 0
12078 1 -58.2343961957 -2.5575483093 430.6163288065 0 0 0
12079 1 -59.9833168951 -2.5582661558 432.4798754727 0 0 0
12080 1 -61.7322438671 -2.5589435193 434.3434512158 0 0 0
12081 1 -41.4276494808 -2.5544172852 421.8650289806 0 0 0
12082 1 -43.1776928629 -2.5544183576 423.7274758563 0 0 0
12083 1 -44.9274338205 -2.5546191124 425.5901112733 0 0 0
12084 1 -46.6768828538 -2.5550261967 427.4530013767 0 0 0
12085 1 -48.4261281278 -2.5555784771 429.3161119659 0 0 0
12086 1 -50.175255897 -2.556208675 431.1793792473 0 0 0
12087 1 -51.9243203339 -2.5568706621 433.0427515495 0 0 0
12089 1 -42.1151267802 -2.5560602225 431.7427665395 0 0 0
12090 1 -43.8645440399 -2.5564307934 433.6058334588 0 0 0
12198 1 -44.7391843787 -0.3429270483 434.5374469482 0 0 0
12102 1 -55.1542372747 -1.8166742074 421.2338249259 0 0 0
12103 1 -56.9029584755 -1.817725546 423.0973107344 0 0 0
12104 1 -58.6517308226 -1.8186682261 424.9608919665 0 0 0
12105 1 -60.4005698165 -1.819493464 426.8245157754 0 0 0
12106 1 -62.149464747 -1.8202161723 428.6881636684 0 0 0
12107 1 -63.8983970202 -1.8208600904 430.5518306649 0 0 0
41687 1 -40.3655662632 -2.5558043667 429.8798547313 0 0 0
12113 1 -47.0939973254 -1.8157501895 421.7987652387 0 0 0
12114 1 -48.8434945354 -1.8162130737 423.66145156 0 0 0
12115 1 -50.5926656278 -1.8168960504 425.5244850124 0 0 0
12116 1 -52.3416800979 -1.8176704612 427.3877395231 0 0 0
12117 1 -54.0906376387 -1.818456288 429.2511191625 0 0 0
12118 1 -55.8395804656 -1.8192179753 431.1145715829 0 0 0
12119 1 -57.5885217261 -1.8199449592 432.9780708873 0 0 0
12121 1 -42.5319510966 -1.8170012032 426.0886899811 0 0 0
12122 1 -44.2815604366 -1.8172600413 427.9514868942 0 0 0
12123 1 -46.0309534315 -1.8176772703 429.814491642 0 0 0
12124 1 -47.7801973316 -1.81820395 431.6776703568 0 0 0
12125 1 -49.5293489426 -1.8187936877 433.5409779463 0 0 0
12126 1 -41.4693034182 -1.8186546626 434.1041447801 0 0 0
41685 1 -36.8659949881 -2.5556292475 426.154376473 0 0 0
12133 1 -61.6922191071 -3.2948974602 422.100569228 0 0 0
12134 1 -63.4410760587 -3.2956550368 423.96443306 0 0 0
41689 1 -35.8038454153 -2.5568721212 434.1694325157 0 0 0
12142 1 -53.6337653822 -3.2924773852 422.6641328024 0 0 0
12143 1 -55.3825874977 -3.2934453396 424.527507136 0 0 0
12144 1 -57.1314149074 -3.2943515341 426.3909948525 0 0 0
12145 1 -58.8802777986 -3.2951739286 428.2545392197 0 0 0
12146 1 -60.6291756642 -3.2959170754 430.1181178174 0 0 0
12147 1 -62.3780973339 -3.2965965992 431.9817228952 0 0 0
12148 1 -64.1270275792 -3.2972334006 433.8453547004 0 0 0
12151 1 -43.8233448382 -3.2918713505 421.3663737968 0 0 0
12152 1 -45.5732860378 -3.2919804313 423.228790602 0 0 0
12153 1 -47.322838247 -3.2923558755 425.0915136637 0 0 0
12154 1 -49.0721014404 -3.2929328747 426.9545283457 0 0 0
12155 1 -50.8212037155 -3.2936147438 428.8177477281 0 0 0
12156 1 -52.5702306678 -3.2943319905 430.6810946383 0 0 0
12157 1 -54.3192241536 -3.295048118 432.5445214893 0 0 0
12158 1 -56.0682009742 -3.2957479691 434.4080018757 0 0 0
12159 1 -41.0113303022 -3.2932303537 427.518577101 0 0 0
12160 1 -42.7609602809 -3.2934517209 429.3813957383 0 0 0
12161 1 -44.5104061104 -3.2938120581 431.2443919053 0 0 0
12162 1 -46.2597126561 -3.2942793846 433.1075501147 0 0 0
43126 1 -39.9487833524 -3.2947928247 435.5339645634 0 0 0
41714 1 -39.490719779 -0.3419985913 428.9484621264 0 0 0
12172 1 -60.171994744 -0.343038185 423.530757688 0 0 0
12192 1 -47.5515107667 -0.3415632451 428.3845514733 0 0 0
12063 1 -57.5489403584 -2.5552708652 420.7351985648 0 0 0
12185 1 -57.359924136 -0.3434425811 429.684591022 0 0 0
12186 1 -59.1088376361 -0.3441853271 431.5481225494 0 0 0
12187 1 -60.8577626326 -0.3448805696 433.4116844576 0 0 0
41710 1 -40.5525528457 -0.3407337678 420.93381892 0 0 0
12184 1 -55.6110269091 -0.3426437364 427.8210999133 0 0 0
12182 1 -52.1132199449 -0.3409209521 424.0943680084 0 0 0
12193 1 -49.3006846845 -0.3421614976 430.2477515718 0 0 0
12194 1 -51.0497731016 -0.3428114598 432.1110791206 0 0 0
12195 1 -52.798815456 -0.3434781661 433.9744921824 0 0 0
12196 1 -41.2403533081 -0.3421926704 430.8113066537 0 0 0
12197 1 -42.9898324145 -0.3425082763 432.6743020736 0 0 0
43109 1 -39.3030005092 -2.5573436506 437.8953070957 0 0 0
41713 1 -37.7409336061 -0.3419171655 427.0857278559 0 0 0
12189 1 -42.3027033966 -0.3406717837 422.7962418901 0 0 0
41705 1 -36.4495693686 -3.2943772272 431.8081666969 0 0 0
13507 1 -63.4811655905 -2.5595979856 436.2070569496 0 0 0
13601 1 -43.4475754408 -3.295585857 439.2602779927 0 0 0
12183 1 -53.8621384514 -0.3417928355 425.957673711 0 0 0
12173 1 -61.9208288526 -0.3438426502 425.3944869857 0 0 0
41666 1 -38.1569794236 -4.0306977739 421.4322426094 0 0 0
13583 1 -59.5661182735 -3.2970959381 438.1350723927 0 0 0
13435 1 -61.9608767277 -4.035375504 437.6369355462 0 0 0
13621 1 -58.0458097154 -0.3454482214 439.5650304581 0 0 0
41702 1 -37.5115351209 -3.2931549317 423.793268486 0 0 0
13451 1 -45.8426636401 -4.0334822987 438.7621518273 0 0 0
43135 1 -36.6786524885 -0.3432334914 435.1008769495 0 0 0
13512 1 -57.1713442366 -2.5588530578 438.6332245121 0 0 0
43137 1 -40.177693113 -0.343797205 438.8268856797 0 0 0
13590 1 -51.5071703609 -3.2960003739 438.6976935866 0 0 0
13436 1 -63.7097805725 -4.0360479077 439.500548796 0 0 0
41703 1 -39.2615032695 -3.293149347 425.6559024706 0 0 0
41696 1 -37.9701384572 -1.818199062 430.3783175055 0 0 0
43108 1 -37.5534708937 -2.5570619028 436.0323112872 0 0 0
41679 1 -37.3244013859 -1.0807230562 432.7395890649 0 0 0
41706 1 -38.1992293184 -3.2945376815 433.6710085738 0 0 0
13481 1 -52.381680895 -1.0825755805 439.6294787758 0 0 0
43093 1 -37.7825163343 -4.0334313131 439.3250796124 0 0 0
13552 1 -54.7765366902 -1.8206755366 439.1313652132 0 0 0
41674 1 -36.6365419146 -1.0794347175 422.8619142461 0 0 0
13940 1 -56.9426632189 -1.0823622558 435.3397838929 0 0 0
13491 1 -42.572881275 -1.0816310963 438.328681852 0 0 0
13520 1 -47.3630716516 -2.5574170726 437.3323695147 0 0 0
13473 1 -58.6916225994 -1.0830344812 437.2033196295 0 0 0
13551 1 -53.0275020465 -1.820045657 437.2678468845 0 0 0
13511 1 -55.4223551198 -2.5582007478 436.7696908649 0 0 0
13545 1 -61.0863957859 -1.8213126509 436.705168401 0 0 0
13450 1 -44.0933959324 -4.0329840955 436.8988450189 0 0 0
43136 1 -38.4282225336 -0.3434678799 436.9638184451 0 0 0
14061 1 -59.3374620076 -1.8206397131 434.8416046397 0 0 0
14060 1 -53.6733490341 -2.5575388143 434.90619567 0 0 0
13026 1 -62.6066890566 -0.3455436874 435.2752748374 0 0 0
42016 1 -40.5945764607 -4.0322247341 433.1726174498 0 0 0
12191 1 -45.8021801732 -0.3410744732 426.5215391256 0 0 0
41669 1 -37.0952717637 -4.0318721226 429.4469236478 0 0 0
13550 1 -51.2784437049 -1.8194143159 435.4043785472 0 0 0
13627 1 -46.4884409456 -0.3434225794 436.4007209783 0 0 0
41670 1 -38.8449869409 -4.031997202 431.3097139334 0 0 0
13560 1 -43.218704466 -1.8190360324 435.9672647184 0 0 0
13434 1 -60.2119502134 -4.0347072409 435.773356313 0 0 0
13479 1 -48.8834759912 -1.0813779747 435.9025507433 0 0 0
13619 1 -54.547830839 -0.3441435036 435.837964688 0 0 0
13582 1 -57.8171661582 -3.2964286743 436.2715211424 0 0 0
41692 1 -39.0320399875 -1.8169485635 422.3635368459 0 0 0
13546 1 -62.8353134102 -1.8219800859 438.5687636348 0 0 0
13474 1 -60.4405667207 -1.0836991666 439.0668859971 0 0 0
13561 1 -44.9680087419 -1.8194996438 437.8305153059 0 0 0
41697 1 -39.7197852203 -1.818373362 432.2411658509 0 0 0
13439 1 -52.1530023329 -4.0334573365 436.3360767434 0 0 0
43092 1 -36.0329495391 -4.0331683248 437.4621221354 0 0 0
12174 1 -63.669739482 -0.3445226209 427.2582266013 0 0 0
41701 1 -35.7615469027 -3.2931491337 421.9305288038 0 0 0
12190 1 -44.0525981584 -0.3407654157 424.6587717409 0 0 0
12171 1 -58.4232596509 -0.3420820538 421.6670526915 0 0 0
12095 1 -63.2123647509 -1.8193053029 420.6704474008 0 0 0
41691 1 -37.2819420844 -1.8169789889 420.5008913165 0 0 0
43130 1 -38.8861978602 -3.296324789 443.5495110477 0 0 0
43561 1 -40.6355110128 -3.2968194766 445.4127674735 0 0 0
43140 1 -37.3656760131 -0.3448826793 444.9793025802 0 0 0
43098 1 -38.4692573799 -4.0353591571 449.2038155188 0 0 0
13441 1 -55.6510739964 -4.0347174284 440.0631104928 0 0 0
13629 1 -49.9867677755 -0.3445484771 440.1275626834 0 0 0
13442 1 -57.4000825447 -4.035340059 441.926687071 0 0 0
13443 1 -59.1490661966 -4.0359697679 443.7903036888 0 0 0
13444 1 -60.8980059684 -4.0366308117 445.6539673948 0 0 0
13445 1 -62.6468789916 -4.0373550799 447.5176797174 0 0 0
13452 1 -47.5918641438 -4.0340320362 440.6255616356 0 0 0
13453 1 -49.341020644 -4.034610991 442.48905159 0 0 0
13454 1 -51.090160853 -4.0351952643 444.3525996688 0 0 0
13455 1 -52.8393099817 -4.0357655113 446.216195308 0 0 0
13456 1 -54.5884740364 -4.0363184812 448.0798536343 0 0 0
13461 1 -41.2813353483 -4.0342484602 443.0513948388 0 0 0
13462 1 -43.0305945177 -4.0347849567 444.9147397363 0 0 0
13463 1 -44.7797806534 -4.0353782193 446.7781748458 0 0 0
13464 1 -46.5289407512 -4.035990394 448.6416530857 0 0 0
13475 1 -62.189485481 -1.0843735135 440.9304853962 0 0 0
13476 1 -63.9383647018 -1.0850801308 442.7941229922 0 0 0
13482 1 -54.1307474528 -1.0831785102 441.4930249145 0 0 0
13483 1 -55.879803503 -1.0837731848 443.356613457 0 0 0
13484 1 -57.6288435326 -1.0843665773 445.2202500644 0 0 0
13485 1 -59.3778461729 -1.0849800665 447.0839480501 0 0 0
13486 1 -61.1267832947 -1.0856436722 448.9477135927 0 0 0
13492 1 -44.3221796429 -1.0821080992 440.191968681 0 0 0
13493 1 -46.071405733 -1.0826466698 442.0553624818 0 0 0
13494 1 -47.8205840366 -1.0832242422 443.9188391181 0 0 0
13495 1 -49.5697487178 -1.0838133596 445.782371335 0 0 0
13496 1 -51.3189352376 -1.0843897219 447.6459428166 0 0 0
13497 1 -53.0681568522 -1.0849502494 449.5095709527 0 0 0
13501 1 -41.5100738165 -1.0833697668 446.3444820685 0 0 0
13502 1 -43.2592426842 -1.0839670061 448.2078921563 0 0 0
13513 1 -58.9203154496 -2.5595010842 440.496791225 0 0 0
13514 1 -60.6692596288 -2.560160181 442.3603927133 0 0 0
13515 1 -62.4181604448 -2.5608545998 444.2240339406 0 0 0
13584 1 -61.3150501573 -3.2977632878 439.9986551679 0 0 0
13522 1 -50.8613581023 -2.5585704138 441.0592879012 0 0 0
13523 1 -52.6104642773 -2.5591581871 442.9228387817 0 0 0
13524 1 -54.3595686392 -2.559733757 444.7864367059 0 0 0
13525 1 -56.1086704729 -2.5602981431 446.6500920757 0 0 0
13526 1 -57.8577481077 -2.5608676924 448.5138293726 0 0 0
13532 1 -42.8017581007 -2.5581849679 441.621693471 0 0 0
13533 1 -44.5510052236 -2.5587207238 443.4850648609 0 0 0
13534 1 -46.3001941204 -2.5593050778 445.3485230546 0 0 0
13535 1 -48.0493656251 -2.5599063502 447.2120322373 0 0 0
13536 1 -49.7985673251 -2.5604942024 449.0755649131 0 0 0
43102 1 -38.0114529946 -1.0823893501 442.6179710605 0 0 0
13553 1 -56.5255546184 -1.8212992573 440.9949227704 0 0 0
13554 1 -58.2745538302 -1.8219225362 442.8585177421 0 0 0
13555 1 -60.02352029 -1.8225638936 444.7221560498 0 0 0
13556 1 -61.772431688 -1.8232520938 446.585843399 0 0 0
13557 1 -63.5212664656 -1.8240212259 448.4495756089 0 0 0
13563 1 -48.4664108174 -1.8205911289 441.5573311489 0 0 0
13564 1 -50.2155555094 -1.8211745189 443.4208518912 0 0 0
13565 1 -51.9646990191 -1.8217524721 445.2844223197 0 0 0
13566 1 -53.7138589243 -1.8223124858 447.1480435295 0 0 0
13567 1 -55.4630270607 -1.8228614628 449.0117449172 0 0 0
13572 1 -42.1559294931 -1.8207807522 443.983093205 0 0 0
13573 1 -43.9051462343 -1.8213473377 445.8464882015 0 0 0
13574 1 -45.6543124275 -1.8219534332 447.7099510551 0 0 0
13575 1 -47.4034851626 -1.8225562968 449.5734317993 0 0 0
13585 1 -63.0639494038 -3.2984510462 441.862273676 0 0 0
13591 1 -53.2562447875 -3.2966065545 440.5612167101 0 0 0
13592 1 -55.0053047772 -3.2972062282 442.424784836 0 0 0
13593 1 -56.7543528556 -3.2977990484 444.2883969767 0 0 0
13594 1 -58.5033753128 -3.2983995528 446.1520639676 0 0 0
13595 1 -60.2523459959 -3.2990341956 448.0157974886 0 0 0
13602 1 -45.196838397 -3.2960974475 441.1236194505 0 0 0
13603 1 -46.9460382244 -3.296660075 442.9870580451 0 0 0
13604 1 -48.6952045472 -3.2972482799 444.8505668488 0 0 0
13605 1 -50.4443746676 -3.2978342231 446.7141211031 0 0 0
13606 1 -52.1935765193 -3.298401755 448.5777188971 0 0 0
13611 1 -42.3847204304 -3.2973921327 447.2761364946 0 0 0
13612 1 -44.1338610943 -3.2980071157 449.1395727889 0 0 0
13622 1 -59.7947705651 -0.3460987763 441.4286133756 0 0 0
13623 1 -61.543697319 -0.3467717832 443.2922333861 0 0 0
13624 1 -63.2925719075 -0.3474943338 445.155894755 0 0 0
13516 1 -64.1670002729 -2.5616129033 446.0877166724 0 0 0
13630 1 -51.7358805715 -0.3451369785 441.9910875805 0 0 0
13631 1 -53.484986012 -0.3457186832 443.8546610689 0 0 0
13632 1 -55.2340927807 -0.3462866854 445.7182840393 0 0 0
13633 1 -56.9831888389 -0.3468504435 447.581975715 0 0 0
13634 1 -58.7322459152 -0.3474303598 449.4457600059 0 0 0
13638 1 -41.9270650455 -0.3442183078 440.6900835102 0 0 0
13639 1 -43.676348224 -0.3447191833 442.553402009 0 0 0
13640 1 -45.4255612334 -0.3452811529 444.4168203278 0 0 0
13641 1 -47.1747364281 -0.3458769651 446.2803067766 0 0 0
13642 1 -48.9239202897 -0.3464732454 448.1438264629 0 0 0
43141 1 -39.1149856839 -0.3453731811 446.842527357 0 0 0
43101 1 -36.2619754458 -1.0820443184 440.7549113893 0 0 0
43119 1 -38.6572255833 -1.8198761312 440.2566418486 0 0 0
43989 1 -40.4066278352 -1.8202843169 442.1198041326 0 0 0
43097 1 -36.7200190602 -4.0348078806 447.3405560995 0 0 0
43129 1 -37.1367692676 -3.2959266563 441.6863877563 0 0 0
43122 1 -37.5945910457 -1.821343287 448.2722153892 0 0 0
43112 1 -38.2404044813 -2.5588407948 445.9108543611 0 0 0
43111 1 -36.4910261017 -2.5583989459 444.0476982105 0 0 0
13647 1 -40.8641760477 -0.3459493236 448.7058701039 0 0 0
44174 1 -39.9896544779 -2.559380369 447.7741410685 0 0 0
43103 1 -39.7608175603 -1.0828353186 444.4811649561 0 0 0
43094 1 -39.5319790665 -4.0337926745 441.1881700876 0 0 0
43121 1 -35.8452829035 -1.8208481268 446.4090253494 0 0 0
13446 1 107.3053419106 -4.0381785882 449.3814300655 -1 0 0
11109 1 -55.2866757701 -0.3078504442 400.173944202 0 0 0
11141 1 -60.0221015467 -1.8172561944 399.2613806613 0 0 0
11120 1 -47.2305656993 -0.3189381449 400.6475932537 0 0 0
40628 1 -39.1694348908 -0.3579764977 401.1639439385 0 0 0
11121 1 -48.9828385531 -0.3348631623 402.5063246003 0 0 0
11123 1 -52.4811505335 -0.3440953362 406.200636049 0 0 0
12629 1 -43.3633965958 -0.3397391671 414.7826774495 0 0 0
11133 1 -49.675606835 -0.3387236597 412.3552177366 0 0 0
11131 1 -46.1731977908 -0.3381731258 408.6325249611 0 0 0
11122 1 -50.7344936849 -0.343075373 404.3380128558 0 0 0