ITEM: TIMESTEP
0
ITEM: NUMBER OF ATOMS
4630
ITEM: BOX BOUNDS xy xz yz pp pp pp
-6.0240988501799997e+01 1.0326002035000000e+02 0.0000000000000000e+00
0.0000000000000000e+00 4.4274527100805940e+00 0.0000000000000000e+00
3.8000000000000000e+02 5.0000000000000000e+02 0.0000000000000000e+00
ITEM: ATOMS id type x y z xu yu zu
27 1 -43.5056 2.59429 398.615 -43.5056 2.59429 398.615
36 1 -38.0864 1.84632 398.665 -38.0864 1.84632 398.665
31 1 -41.1425 3.26354 399.05 -41.1425 3.26354 399.05
22 1 -46.5879 4.01931 399.036 -46.5879 4.01931 399.036
20 1 -47.3843 1.80493 399.917 -47.3843 1.80493 399.917
40 1 -35.7264 2.5183 399.106 -35.7264 2.5183 399.106
34 1 -38.8642 4.04806 399.536 -38.8642 4.04806 399.536
17 1 -49.6702 1.04077 399.443 -49.6702 1.04077 399.443
9 1 -55.039 1.71814 399.367 -55.039 1.71814 399.367
43 1 -33.4512 3.30438 399.595 -33.4512 3.30438 399.595
12 1 -52.797 2.56935 399.881 -52.797 2.56935 399.881
5 1 -57.3959 1.09821 398.924 -57.3959 1.09821 398.924
29 1 -41.9686 1.03934 399.927 -41.9686 1.03934 399.927
853 1 -54.3425 3.01426 414.4 -54.3425 3.01426 414.4
873 1 -43.5438 1.53062 414.499 -43.5438 1.53062 414.499
865 1 -47.4803 0.767981 415.918 -47.4803 0.767981 415.918
1174 1 -35.22 2.2081 417.495 -35.22 2.2081 417.495
883 1 -38.1445 0.788847 414.552 -38.1445 0.788847 414.552
863 1 -48.9435 2.2728 414.449 -48.9435 2.2728 414.449
315 1 -33.641 1.73563 402.957 -33.641 1.73563 402.957
307 1 -38.4122 3.1763 405.329 -38.4122 3.1763 405.329
1150 1 -49.1291 0.73201 417.844 -49.1291 0.73201 417.844
855 1 -52.8794 1.50974 415.869 -52.8794 1.50974 415.869
310 1 -36.7615 3.21048 403.41 -36.7615 3.21048 403.41
871 1 -44.3684 3.72651 415.462 -44.3684 3.72651 415.462
16 1 -50.4832 3.24515 400.325 -50.4832 3.24515 400.325
309 1 -36.9466 1.67104 406.798 -36.9466 1.67104 406.798
1156 1 -46.0174 3.69071 417.387 -46.0174 3.69071 417.387
867 1 -46.6559 2.99963 414.955 -46.6559 2.99963 414.955
1159 1 -43.7303 4.41786 417.894 -43.7303 4.41786 417.894
1168 1 -38.3318 3.67678 417.947 -38.3318 3.67678 417.947
1170 1 -37.507 1.48076 416.985 -37.507 1.48076 416.985
594 1 -37.7717 3.8678 407.76 -37.7717 3.8678 407.76
37 1 -37.3939 2.50799 400.986 -37.3939 2.50799 400.986
851 1 -55.1667 0.782748 415.363 -55.1667 0.782748 415.363
857 1 -52.0552 3.74144 414.906 -52.0552 3.74144 414.906
592 1 -38.5965 1.63672 408.722 -38.5965 1.63672 408.722
849 1 -55.9909 2.97864 416.326 -55.9909 2.97864 416.326
877 1 -41.2565 2.25769 415.006 -41.2565 2.25769 415.006
1143 1 -53.7037 3.7055 416.832 -53.7037 3.7055 416.832
1140 1 -55.3519 3.66941 418.759 -55.3519 3.66941 418.759
845 1 -58.2782 2.2523 415.821 -58.2782 2.2523 415.821
875 1 -42.0811 0.0261488 415.969 -42.0811 4.4536 415.969
886 1 -36.4948 0.823982 412.627 -36.4948 0.823982 412.627
891 1 -33.3819 3.78169 412.176 -33.3819 3.78169 412.176
39 1 -35.9406 1.01169 402.445 -35.9406 1.01169 402.445
1177 1 -33.7582 0.704234 418.966 -33.7582 0.704234 418.966
1167 1 -39.1567 1.44528 418.91 -39.1567 1.44528 418.91
8 1 -55.8941 3.98756 400.356 -55.8941 3.98756 400.356
869 1 -45.1929 1.49491 416.424 -45.1929 1.49491 416.424
1136 1 -57.6389 2.94269 418.253 -57.6389 2.94269 418.253
1162 1 -42.2681 2.91359 419.364 -42.2681 2.91359 419.364
15 1 -51.3198 1.02833 401.331 -51.3198 1.02833 401.331
280 1 -52.9658 0.999222 403.255 -52.9658 0.999222 403.255
277 1 -54.616 0.975875 405.176 -54.616 0.975875 405.176
273 1 -56.2604 0.94067 407.105 -56.2604 0.94067 407.105
560 1 -57.9085 0.906533 409.032 -57.9085 0.906533 409.032
557 1 -59.5574 0.872226 410.958 -59.5574 0.872226 410.958
26 1 -43.6281 1.02692 401.866 -43.6281 1.02692 401.866
294 1 -45.2805 0.99824 403.806 -45.2805 0.99824 403.806
291 1 -46.9289 0.962684 405.734 -46.9289 0.962684 405.734
576 1 -48.5756 0.925874 407.66 -48.5756 0.925874 407.66
573 1 -50.2228 0.890062 409.585 -50.2228 0.890062 409.585
570 1 -51.8702 0.854111 411.511 -51.8702 0.854111 411.511
854 1 -53.5183 0.818317 413.437 -53.5183 0.818317 413.437
305 1 -39.2364 0.945409 406.289 -39.2364 0.945409 406.289
589 1 -40.8852 0.910249 408.215 -40.8852 0.910249 408.215
586 1 -42.5338 0.874875 410.14 -42.5338 0.874875 410.14
872 1 -44.1826 0.839383 412.066 -44.1826 0.839383 412.066
599 1 -34.8447 0.858646 410.704 -34.8447 0.858646 410.704
1132 1 -59.926 2.2163 417.747 -59.926 2.2163 417.747
4 1 -57.5553 3.99872 402.225 -57.5553 3.99872 402.225
268 1 -59.1865 3.95462 404.175 -59.1865 3.95462 404.175
1152 1 -48.3047 2.96374 416.881 -48.3047 2.96374 416.881
19 1 -48.2205 3.99109 400.889 -48.2205 3.99109 400.889
286 1 -49.8607 3.95591 402.784 -49.8607 3.95591 402.784
282 1 -51.5017 3.92413 404.715 -51.5017 3.92413 404.715
279 1 -53.1495 3.89525 406.643 -53.1495 3.89525 406.643
565 1 -54.796 3.86162 408.572 -54.796 3.86162 408.572
563 1 -56.4443 3.82746 410.499 -56.4443 3.82746 410.499
846 1 -58.0933 3.7932 412.426 -58.0933 3.7932 412.426
32 1 -40.52 3.99083 401.439 -40.52 3.99083 401.439
300 1 -42.1692 3.95613 403.354 -42.1692 3.95613 403.354
297 1 -43.8161 3.92047 405.278 -43.8161 3.92047 405.278
293 1 -45.4634 3.88519 407.203 -45.4634 3.88519 407.203
578 1 -47.1109 3.84933 409.129 -47.1109 3.84933 409.129
575 1 -48.7588 3.81349 411.055 -48.7588 3.81349 411.055
860 1 -50.4069 3.77747 412.981 -50.4069 3.77747 412.981
591 1 -39.4212 3.83293 409.685 -39.4212 3.83293 409.685
588 1 -41.0703 3.79763 411.61 -41.0703 3.79763 411.61
874 1 -42.7193 3.76214 413.536 -42.7193 3.76214 413.536
10 1 -54.4368 2.49816 401.793 -54.4368 2.49816 401.793
274 1 -56.0869 2.48787 403.705 -56.0869 2.48787 403.705
271 1 -57.7249 2.44807 405.64 -57.7249 2.44807 405.64
558 1 -59.3731 2.41361 407.565 -59.3731 2.41361 407.565
24 1 -45.1204 2.5471 400.46 -45.1204 2.5471 400.46
21 1 -46.7591 2.50459 402.349 -46.7591 2.50459 402.349
288 1 -48.3974 2.46667 404.268 -48.3974 2.46667 404.268
285 1 -50.0404 2.42785 406.192 -50.0404 2.42785 406.192
571 1 -51.6867 2.39305 408.116 -51.6867 2.39305 408.116
568 1 -53.3333 2.35773 410.042 -53.3333 2.35773 410.042
852 1 -54.9813 2.32258 411.968 -54.9813 2.32258 411.968
848 1 -56.6298 2.28764 413.894 -56.6298 2.28764 413.894
306 1 -39.051 2.48113 402.896 -39.051 2.48113 402.896
302 1 -40.7016 2.44927 404.818 -40.7016 2.44927 404.818
299 1 -42.3497 2.41467 406.744 -42.3497 2.41467 406.744
583 1 -43.9979 2.37969 408.671 -43.9979 2.37969 408.671
581 1 -45.6463 2.34427 410.597 -45.6463 2.34427 410.597
866 1 -47.2949 2.30866 412.523 -47.2949 2.30866 412.523
880 1 -39.6072 2.29318 413.081 -39.6072 2.29318 413.081
312 1 -35.2953 1.70437 404.875 -35.2953 1.70437 404.875
2 1 -59.0436 1.11248 400.798 -59.0436 1.11248 400.798
13 1 -52.1345 3.22316 402.273 -52.1345 3.22316 402.273
278 1 -53.7903 3.20206 404.207 -53.7903 3.20206 404.207
275 1 -55.437 3.17215 406.138 -55.437 3.17215 406.138
562 1 -57.0838 3.13711 408.069 -57.0838 3.13711 408.069
559 1 -58.733 3.10321 409.995 -58.733 3.10321 409.995
1166 1 -39.9814 3.64116 419.872 -39.9814 3.64116 419.872
889 1 -34.2071 1.55076 413.137 -34.2071 1.55076 413.137
28 1 -42.8073 3.25599 400.932 -42.8073 3.25599 400.932
296 1 -44.4587 3.22748 402.847 -44.4587 3.22748 402.847
292 1 -46.106 3.19448 404.772 -46.106 3.19448 404.772
289 1 -47.7522 3.15809 406.698 -47.7522 3.15809 406.698
574 1 -49.3992 3.12175 408.623 -49.3992 3.12175 408.623
572 1 -51.0465 3.08588 410.548 -51.0465 3.08588 410.548
856 1 -52.6942 3.04991 412.474 -52.6942 3.04991 412.474
303 1 -40.0612 3.1415 407.252 -40.0612 3.1415 407.252
587 1 -41.7096 3.10625 409.177 -41.7096 3.10625 409.177
584 1 -43.3582 3.07085 411.103 -43.3582 3.07085 411.103
870 1 -45.007 3.03532 413.029 -45.007 3.03532 413.029
6 1 -56.7319 1.79559 401.256 -56.7319 1.79559 401.256
270 1 -58.3651 1.7594 403.203 -58.3651 1.7594 403.203
267 1 -60.0114 1.72324 405.134 -60.0114 1.72324 405.134
890 1 -33.5699 2.24298 415.571 -33.5699 2.24298 415.571
18 1 -49.0358 1.76032 401.831 -49.0358 1.76032 401.831
284 1 -50.6781 1.72716 403.756 -50.6781 1.72716 403.756
281 1 -52.3259 1.69699 405.682 -52.3259 1.69699 405.682
567 1 -53.9728 1.66524 407.608 -53.9728 1.66524 407.608
564 1 -55.6201 1.63079 409.536 -55.6201 1.63079 409.536
561 1 -57.2689 1.5967 411.463 -57.2689 1.5967 411.463
844 1 -58.9176 1.56204 413.389 -58.9176 1.56204 413.389
33 1 -39.7076 1.79641 400.507 -39.7076 1.79641 400.507
30 1 -41.3517 1.75724 402.387 -41.3517 1.75724 402.387
298 1 -42.993 1.72373 404.312 -42.993 1.72373 404.312
295 1 -44.6396 1.68911 406.239 -44.6396 1.68911 406.239
580 1 -46.2871 1.6535 408.166 -46.2871 1.6535 408.166
577 1 -47.9348 1.61766 410.092 -47.9348 1.61766 410.092
862 1 -49.5828 1.58176 412.018 -49.5828 1.58176 412.018
590 1 -40.2457 1.6016 410.648 -40.2457 1.6016 410.648
876 1 -41.8947 1.56618 412.573 -41.8947 1.56618 412.573
1163 1 -41.4434 0.717765 418.402 -41.4434 0.717765 418.402
1153 1 -47.6664 3.65473 419.313 -47.6664 3.65473 419.313
311 1 -36.1204 3.9018 405.837 -36.1204 3.9018 405.837
42 1 -34.2928 1.05262 400.567 -34.2928 1.05262 400.567
1135 1 -58.4628 0.710802 419.216 -58.4628 0.710802 419.216
1171 1 -36.87 2.17286 419.419 -36.87 2.17286 419.419
1139 1 -56.1758 1.43753 419.722 -56.1758 1.43753 419.722
601 1 -34.0194 3.08945 409.742 -34.0194 3.08945 409.742
313 1 -34.4659 3.93522 403.912 -34.4659 3.93522 403.912
858 1 -51.231 1.5457 413.943 -51.231 1.5457 413.943
868 1 -45.8314 0.803777 413.992 -45.8314 0.803777 413.992
1147 1 -51.4164 0.00504594 417.338 -51.4164 4.4325 417.338
843 1 -59.7417 3.75809 414.352 -59.7417 3.75809 414.352
593 1 -37.9578 2.32843 411.156 -37.9578 2.32843 411.156
308 1 -37.5869 0.979074 404.366 -37.5869 0.979074 404.366
861 1 -49.7678 0.0410806 415.412 -49.7678 4.46853 415.412
1158 1 -44.5549 2.18619 418.857 -44.5549 2.18619 418.857
884 1 -37.3197 3.02019 413.59 -37.3197 3.02019 413.59
881 1 -38.9693 2.98489 415.514 -38.9693 2.98489 415.514
885 1 -36.6821 3.71213 416.023 -36.6821 3.71213 416.023
859 1 -50.5921 2.2368 416.375 -50.5921 2.2368 416.375
596 1 -36.3082 2.36323 409.232 -36.3082 2.36323 409.232
879 1 -39.794 0.753416 416.476 -39.794 0.753416 416.476
1172 1 -36.045 4.40425 418.457 -36.045 4.40425 418.457
1154 1 -46.8419 1.45901 418.35 -46.8419 1.45901 418.35
887 1 -35.8572 1.51596 415.061 -35.8572 1.51596 415.061
597 1 -35.6699 3.05511 411.665 -35.6699 3.05511 411.665
1161 1 -42.9057 2.22203 416.931 -42.9057 2.22203 416.931
1138 1 -56.8149 0.746992 417.29 -56.8149 0.746992 417.29
1149 1 -49.9535 2.92769 418.807 -49.9535 2.92769 418.807
41 1 -35.1083 3.24525 401.498 -35.1083 3.24525 401.498
888 1 -35.0322 3.74714 414.099 -35.0322 3.74714 414.099
1165 1 -40.6187 2.94934 417.439 -40.6187 2.94934 417.439
1141 1 -54.5278 1.47376 417.796 -54.5278 1.47376 417.796
1145 1 -52.2406 2.20072 418.301 -52.2406 2.20072 418.301
600 1 -34.6577 2.39735 407.309 -34.6577 2.39735 407.309
1148 1 -50.7777 0.695877 419.77 -50.7777 0.695877 419.77
882 1 -38.7825 0.0971111 412.118 -38.7825 4.52456 412.118
1157 1 -45.3794 4.38193 419.82 -45.3794 4.38193 419.82
1144 1 -53.0648 4.39634 419.265 -53.0648 4.39634 419.265
602 1 -33.1938 0.892621 408.781 -33.1938 0.892621 408.781
1131 1 -60.1101 0.674114 421.144 -60.1101 0.674114 421.144
1755 1 -33.4999 2.7469 428.191 -33.4999 2.7469 428.191
1460 1 -37.8829 2.82947 423.776 -37.8829 2.82947 423.776
2308 1 -47.1303 3.29992 437.767 -47.1303 3.29992 437.767
2316 1 -42.3773 1.87163 435.383 -42.3773 1.87163 435.383
2312 1 -44.846 4.02906 438.274 -44.846 4.02906 438.274
1464 1 -35.5969 3.55755 424.285 -35.5969 3.55755 424.285
1461 1 -37.0581 0.633615 422.814 -37.0581 0.633615 422.814
2039 1 -36.1614 3.36701 434.474 -36.1614 3.36701 434.474
2613 1 -37.9943 1.78968 439.797 -37.9943 1.78968 439.797
1467 1 -33.3108 4.28561 424.795 -33.3108 4.28561 424.795
2603 1 -43.3844 2.52579 439.745 -43.3844 2.52579 439.745
1443 1 -47.0283 4.34579 421.746 -47.0283 4.34579 421.746
1748 1 -37.2464 3.52177 426.21 -37.2464 3.52177 426.21
2023 1 -44.6619 1.14261 434.876 -44.6619 1.14261 434.876
2310 1 -45.6684 1.79648 439.238 -45.6684 1.79648 439.238
1151 1 -48.4907 1.42294 420.276 -48.4907 1.42294 420.276
2303 1 -50.2374 0.338376 438.224 -50.2374 0.338376 438.224
2299 1 -52.5224 4.03717 437.718 -52.5224 4.03717 437.718
2033 1 -39.2695 0.405658 434.928 -39.2695 0.405658 434.928
1433 1 -52.426 0.659508 421.697 -52.426 0.659508 421.697
1430 1 -54.0738 0.622836 423.624 -54.0738 0.622836 423.624
1426 1 -55.7211 0.585839 425.551 -55.7211 0.585839 425.551
1713 1 -57.368 0.548542 427.478 -57.368 0.548542 427.478
1710 1 -59.0143 0.511002 429.406 -59.0143 0.511002 429.406
2330 1 -34.0643 2.55643 438.379 -34.0643 2.55643 438.379
1160 1 -43.0927 0.681906 420.327 -43.0927 0.681906 420.327
1447 1 -44.7417 0.645826 422.253 -44.7417 0.645826 422.253
1444 1 -46.3903 0.609498 424.179 -46.3903 0.609498 424.179
1730 1 -48.0385 0.572887 426.105 -48.0385 0.572887 426.105
1727 1 -49.6861 0.535976 428.032 -49.6861 0.535976 428.032
1724 1 -51.3331 0.498774 429.959 -51.3331 0.498774 429.959
2008 1 -52.9795 0.461322 431.886 -52.9795 0.461322 431.886
2006 1 -54.6254 0.423685 433.814 -54.6254 0.423685 433.814
1458 1 -38.7076 0.597794 424.739 -38.7076 0.597794 424.739
1743 1 -40.3567 0.561637 426.664 -40.3567 0.561637 426.664
1740 1 -42.0052 0.525143 428.589 -42.0052 0.525143 428.589
2026 1 -43.653 0.488316 430.515 -43.653 0.488316 430.515
2022 1 -45.3002 0.451177 432.442 -45.3002 0.451177 432.442
2019 1 -46.9466 0.413766 434.369 -46.9466 0.413766 434.369
2309 1 -46.3077 1.10504 436.803 -46.3077 1.10504 436.803
1137 1 -56.9997 3.633 420.685 -56.9997 3.633 420.685
1421 1 -58.6471 3.59619 422.613 -58.6471 3.59619 422.613
1439 1 -49.315 3.61854 421.24 -49.315 3.61854 421.24
1435 1 -50.9633 3.5821 423.166 -50.9633 3.5821 423.166
1432 1 -52.6111 3.54535 425.093 -52.6111 3.54535 425.093
1719 1 -54.2583 3.50828 427.02 -54.2583 3.50828 427.02
1716 1 -55.905 3.47094 428.948 -55.905 3.47094 428.948
2001 1 -57.5513 3.43338 430.876 -57.5513 3.43338 430.876
1998 1 -59.1971 3.39567 432.804 -59.1971 3.39567 432.804
2323 1 -37.8087 3.33003 436.399 -37.8087 3.33003 436.399
1453 1 -41.6307 3.6053 421.797 -41.6307 3.6053 421.797
1450 1 -43.2798 3.56918 423.723 -43.2798 3.56918 423.723
1446 1 -44.9284 3.53278 425.648 -44.9284 3.53278 425.648
1732 1 -46.5764 3.49608 427.575 -46.5764 3.49608 427.575
1729 1 -48.2239 3.45909 429.501 -48.2239 3.45909 429.501
2014 1 -49.8708 3.42181 431.429 -49.8708 3.42181 431.429
2011 1 -51.517 3.38429 433.356 -51.517 3.38429 433.356
1745 1 -38.8955 3.48562 428.135 -38.8955 3.48562 428.135
1742 1 -40.5439 3.4491 430.06 -40.5439 3.4491 430.06
2028 1 -42.1917 3.41222 431.986 -42.1917 3.41222 431.986
2025 1 -43.8387 3.37503 433.913 -43.8387 3.37503 433.913
1427 1 -55.5367 2.12788 422.155 -55.5367 2.12788 422.155
1424 1 -57.1841 2.09096 424.082 -57.1841 2.09096 424.082
1711 1 -58.8309 2.05372 426.009 -58.8309 2.05372 426.009
2322 1 -38.6321 1.09768 437.363 -38.6321 1.09768 437.363
1750 1 -35.7854 2.01845 427.681 -35.7854 2.01845 427.681
1155 1 -46.2039 2.15016 420.783 -46.2039 2.15016 420.783
1441 1 -47.8526 2.11391 422.709 -47.8526 2.11391 422.709
1438 1 -49.5008 2.07739 424.635 -49.5008 2.07739 424.635
1725 1 -51.1485 2.04056 426.562 -51.1485 2.04056 426.562
1722 1 -52.7956 2.00343 428.489 -52.7956 2.00343 428.489
1718 1 -54.4422 1.96603 430.417 -54.4422 1.96603 430.417
2003 1 -56.0883 1.92844 432.345 -56.0883 1.92844 432.345
2000 1 -57.7339 1.89072 434.273 -57.7339 1.89072 434.273
1459 1 -38.5197 2.1373 421.343 -38.5197 2.1373 421.343
1455 1 -40.1691 2.10145 423.268 -40.1691 2.10145 423.268
1452 1 -41.8181 2.0653 425.193 -41.8181 2.0653 425.193
1737 1 -43.4667 2.02885 427.119 -43.4667 2.02885 427.119
1735 1 -45.1146 1.99208 429.045 -45.1146 1.99208 429.045
2020 1 -46.762 1.95501 430.972 -46.762 1.95501 430.972
2017 1 -48.4086 1.91766 432.899 -48.4086 1.91766 432.899
2034 1 -39.0829 1.94577 431.531 -39.0829 1.94577 431.531
2031 1 -40.7305 1.90886 433.457 -40.7305 1.90886 433.457
2029 1 -41.554 4.10401 434.42 -41.554 4.10401 434.42
1146 1 -51.6019 2.89145 420.734 -51.6019 2.89145 420.734
1431 1 -53.25 2.85494 422.66 -53.25 2.85494 422.66
1428 1 -54.8975 2.8181 424.587 -54.8975 2.8181 424.587
1715 1 -56.5446 2.78095 426.515 -56.5446 2.78095 426.515
1712 1 -58.1912 2.74352 428.442 -58.1912 2.74352 428.442
1708 1 -59.8374 2.70589 430.37 -59.8374 2.70589 430.37
1747 1 -37.4345 1.98231 429.606 -37.4345 1.98231 429.606
1449 1 -43.9172 2.87762 421.29 -43.9172 2.87762 421.29
1445 1 -45.5661 2.84142 423.216 -45.5661 2.84142 423.216
1442 1 -47.2145 2.80496 425.142 -47.2145 2.80496 425.142
1728 1 -48.8624 2.7682 427.068 -48.8624 2.7682 427.068
1726 1 -50.5097 2.73114 428.995 -50.5097 2.73114 428.995
2010 1 -52.1564 2.6938 430.923 -52.1564 2.6938 430.923
2007 1 -53.8025 2.65625 432.85 -53.8025 2.65625 432.85
1456 1 -39.5322 2.79348 425.701 -39.5322 2.79348 425.701
1741 1 -41.181 2.75716 427.626 -41.181 2.75716 427.626
1738 1 -42.8292 2.7205 429.552 -42.8292 2.7205 429.552
2024 1 -44.4767 2.68351 431.479 -44.4767 2.68351 431.479
2021 1 -46.1235 2.64623 433.405 -46.1235 2.64623 433.405
2035 1 -38.4459 2.6379 433.965 -38.4459 2.6379 433.965
1754 1 -34.1358 2.05418 425.757 -34.1358 2.05418 425.757
1423 1 -57.8234 1.40092 421.649 -57.8234 1.40092 421.649
1420 1 -59.4706 1.36392 423.576 -59.4706 1.36392 423.576
2044 1 -33.0528 1.90067 434.02 -33.0528 1.90067 434.02
1437 1 -50.1392 1.38663 422.203 -50.1392 1.38663 422.203
1434 1 -51.7873 1.35004 424.129 -51.7873 1.35004 424.129
1721 1 -53.4348 1.31313 426.056 -53.4348 1.31313 426.056
1717 1 -55.0817 1.27592 427.984 -55.0817 1.27592 427.984
1714 1 -56.7282 1.23845 429.912 -56.7282 1.23845 429.912
1999 1 -58.3742 1.20081 431.84 -58.3742 1.20081 431.84
1997 1 -60.0199 1.16306 433.768 -60.0199 1.16306 433.768
1164 1 -40.8061 1.40954 420.835 -40.8061 1.40954 420.835
1451 1 -42.4553 1.37354 422.76 -42.4553 1.37354 422.76
1448 1 -44.1041 1.33729 424.686 -44.1041 1.33729 424.686
1734 1 -45.7525 1.30074 426.612 -45.7525 1.30074 426.612
1731 1 -47.4003 1.2639 428.538 -47.4003 1.2639 428.538
2016 1 -49.0474 1.22676 430.465 -49.0474 1.22676 430.465
2012 1 -50.6939 1.18935 432.392 -50.6939 1.18935 432.392
2009 1 -52.3398 1.15174 434.32 -52.3398 1.15174 434.32
1746 1 -38.071 1.29001 427.172 -38.071 1.29001 427.172
1744 1 -39.7198 1.25368 429.097 -39.7198 1.25368 429.097
2030 1 -41.3679 1.21698 431.023 -41.3679 1.21698 431.023
2027 1 -43.0153 1.17994 432.949 -43.0153 1.17994 432.949
2325 1 -36.9852 1.13484 435.436 -36.9852 1.13484 435.436
1749 1 -36.61 4.21416 428.643 -36.61 4.21416 428.643
1425 1 -56.3604 4.32319 423.118 -56.3604 4.32319 423.118
1736 1 -44.2907 4.22423 428.082 -44.2907 4.22423 428.082
1142 1 -53.8889 2.16445 420.228 -53.8889 2.16445 420.228
1720 1 -53.619 4.19849 429.453 -53.619 4.19849 429.453
2005 1 -55.2653 4.16098 431.381 -55.2653 4.16098 431.381
2002 1 -56.9112 4.12332 433.309 -56.9112 4.12332 433.309
1169 1 -37.6948 4.36884 420.381 -37.6948 4.36884 420.381
1723 1 -51.9721 4.23576 427.526 -51.9721 4.23576 427.526
1440 1 -48.6767 4.30941 423.672 -48.6767 4.30941 423.672
1733 1 -45.9384 4.18731 430.008 -45.9384 4.18731 430.008
2018 1 -47.5854 4.15009 431.935 -47.5854 4.15009 431.935
2015 1 -49.2317 4.11262 433.862 -49.2317 4.11262 433.862
2036 1 -38.2588 4.17782 430.568 -38.2588 4.17782 430.568
2032 1 -39.9068 4.14109 432.494 -39.9068 4.14109 432.494
2326 1 -36.3481 1.82703 437.871 -36.3481 1.82703 437.871
1752 1 -34.9607 4.25009 426.719 -34.9607 4.25009 426.719
1457 1 -39.3444 4.33314 422.305 -39.3444 4.33314 422.305
2043 1 -33.6887 1.20797 431.586 -33.6887 1.20797 431.586
2286 1 -59.3791 1.85297 436.201 -59.3791 1.85297 436.201
2319 1 -40.278 1.06025 439.289 -40.278 1.06025 439.289
1436 1 -50.3247 4.27274 425.599 -50.3247 4.27274 425.599
1422 1 -58.0075 4.28611 425.045 -58.0075 4.28611 425.045
1173 1 -35.4083 0.6691 420.89 -35.4083 0.6691 420.89
2293 1 -55.63 1.07622 438.176 -55.63 1.07622 438.176
2289 1 -57.9157 0.348187 437.671 -57.9157 0.348187 437.671
2295 1 -54.1668 3.99936 439.646 -54.1668 3.99936 439.646
1465 1 -34.7719 1.36157 423.323 -34.7719 1.36157 423.323
2315 1 -42.5619 0.330882 438.782 -42.5619 0.330882 438.782
2331 1 -33.877 4.09615 434.982 -33.877 4.09615 434.982
2297 1 -53.3447 1.80454 438.682 -53.3447 1.80454 438.682
2324 1 -37.1713 4.02212 438.834 -37.1713 4.02212 438.834
2306 1 -47.9527 1.06732 438.731 -47.9527 1.06732 438.731
2285 1 -59.5602 0.310503 439.599 -59.5602 0.310503 439.599
1462 1 -36.4217 1.32598 425.248 -36.4217 1.32598 425.248
1751 1 -35.1493 2.711 430.115 -35.1493 2.711 430.115
2329 1 -34.7009 1.86406 435.945 -34.7009 1.86406 435.945
2042 1 -34.5132 3.40358 432.548 -34.5132 3.40358 432.548
2041 1 -35.3374 1.17162 433.511 -35.3374 1.17162 433.511
2593 1 -48.775 3.26215 439.695 -48.775 3.26215 439.695
2328 1 -34.8876 0.324112 439.342 -34.8876 0.324112 439.342
2301 1 -51.0596 2.53319 439.188 -51.0596 2.53319 439.188
1466 1 -33.9469 3.59295 422.362 -33.9469 3.59295 422.362
2298 1 -53.1626 3.34661 435.284 -53.1626 3.34661 435.284
2321 1 -39.4551 3.29272 438.326 -39.4551 3.29272 438.326
2313 1 -44.0233 1.83415 437.31 -44.0233 1.83415 437.31
2294 1 -54.8077 3.30884 437.212 -54.8077 3.30884 437.212
2304 1 -49.4149 2.571 437.26 -49.4149 2.571 437.26
2300 1 -51.6999 1.84235 436.754 -51.6999 1.84235 436.754
2290 1 -57.0933 2.58079 436.707 -57.0933 2.58079 436.707
2318 1 -40.9161 0.368391 436.855 -40.9161 0.368391 436.855
2327 1 -35.5247 4.05932 436.908 -35.5247 4.05932 436.908
2004 1 -55.4481 2.61855 434.778 -55.4481 2.61855 434.778
2013 1 -50.0546 1.88008 434.826 -50.0546 1.88008 434.826
2288 1 -58.5566 4.08557 435.237 -58.5566 4.08557 435.237
2037 1 -37.6221 0.442601 433.002 -37.6221 0.442601 433.002
1739 1 -42.6425 4.26084 426.156 -42.6425 4.26084 426.156
1753 1 -34.3247 0.515282 429.152 -34.3247 0.515282 429.152
2307 1 -47.7696 2.6087 435.333 -47.7696 2.6087 435.333
2314 1 -43.2004 4.06664 436.347 -43.2004 4.06664 436.347
2040 1 -35.9737 0.479157 431.077 -35.9737 0.479157 431.077
2320 1 -40.093 2.60079 435.891 -40.093 2.60079 435.891
2292 1 -56.2708 0.385944 435.742 -56.2708 0.385944 435.742
2311 1 -45.4849 3.33758 435.84 -45.4849 3.33758 435.84
2302 1 -50.8773 4.07495 435.79 -50.8773 4.07495 435.79
2296 1 -53.9852 1.114 436.248 -53.9852 1.114 436.248
1463 1 -36.2333 2.86513 421.852 -36.2333 2.86513 421.852
2287 1 -58.738 2.54306 438.635 -58.738 2.54306 438.635
2291 1 -56.4523 3.27106 439.14 -56.4523 3.27106 439.14
2317 1 -41.7391 2.56339 437.818 -41.7391 2.56339 437.818
2038 1 -36.798 2.67466 432.04 -36.798 2.67466 432.04
2305 1 -48.5923 0.376142 436.296 -48.5923 0.376142 436.296
2332 1 -33.2407 0.361201 437.417 -33.2407 0.361201 437.417
1709 1 -59.6542 4.24871 426.973 -59.6542 4.24871 426.973
1468 1 -33.1218 1.39678 421.4 -33.1218 1.39678 421.4
1454 1 -40.9936 4.29714 424.23 -40.9936 4.29714 424.23
1429 1 -54.7129 4.35993 421.191 -54.7129 4.35993 421.191
1133 1 -59.2865 2.90625 420.18 -59.2865 2.90625 420.18
1175 1 -34.5833 2.90044 419.928 -34.5833 2.90044 419.928
2616 1 -35.8952 0.978671 443.704 -35.8952 0.978671 443.704
2901 1 -37.539 0.94101 445.632 -37.539 0.94101 445.632
2907 1 -34.4345 3.90314 445.176 -34.4345 3.90314 445.176
3194 1 -35.4377 0.129871 449.54 -35.4377 0.129871 449.54
2587 1 -51.8818 0.300547 440.152 -51.8818 0.300547 440.152
2597 1 -46.4907 3.99134 440.202 -46.4907 3.99134 440.202
2584 1 -53.5256 0.262738 442.08 -53.5256 0.262738 442.08
2581 1 -55.1689 0.22504 444.009 -55.1689 0.22504 444.009
2868 1 -56.8118 0.187552 445.937 -56.8118 0.187552 445.937
2865 1 -58.4544 0.150384 447.865 -58.4544 0.150384 447.865
2601 1 -44.2067 0.29322 440.709 -44.2067 0.29322 440.709
2598 1 -45.8507 0.255495 442.637 -45.8507 0.255495 442.637
2885 1 -47.4939 0.217791 444.565 -47.4939 0.217791 444.565
2882 1 -49.1365 0.180184 446.493 -49.1365 0.180184 446.493
2879 1 -50.7784 0.142756 448.422 -50.7784 0.142756 448.422
2612 1 -38.1783 0.249106 443.196 -38.1783 0.249106 443.196
2898 1 -39.822 0.211449 445.124 -39.822 0.211449 445.124
2895 1 -41.4648 0.17384 447.052 -41.4648 0.17384 447.052
3180 1 -43.1067 0.136357 448.981 -43.1067 0.136357 448.981
2576 1 -58.0964 3.23338 441.069 -58.0964 3.23338 441.069
2574 1 -59.7403 3.19588 442.997 -59.7403 3.19588 442.997
2589 1 -50.419 3.22433 441.623 -50.419 3.22433 441.623
2586 1 -52.0624 3.18654 443.551 -52.0624 3.18654 443.551
2874 1 -53.7052 3.14887 445.479 -53.7052 3.14887 445.479
2871 1 -55.3476 3.11141 447.407 -55.3476 3.11141 447.407
3155 1 -56.9896 3.07427 449.335 -56.9896 3.07427 449.335
2607 1 -41.1006 3.25519 440.253 -41.1006 3.25519 440.253
2604 1 -42.7451 3.21753 442.181 -42.7451 3.21753 442.181
2600 1 -44.3887 3.17984 444.109 -44.3887 3.17984 444.109
2887 1 -46.0315 3.14222 446.037 -46.0315 3.14222 446.037
2884 1 -47.6736 3.10474 447.965 -47.6736 3.10474 447.965
3168 1 -49.315 3.06748 449.894 -49.315 3.06748 449.894
2900 1 -38.3606 3.13592 446.596 -38.3606 3.13592 446.596
2897 1 -40.0029 3.09837 448.524 -40.0029 3.09837 448.524
2582 1 -54.9889 1.76674 440.61 -54.9889 1.76674 440.61
2579 1 -56.6326 1.72905 442.538 -56.6326 1.72905 442.538
2866 1 -58.276 1.69156 444.467 -58.276 1.69156 444.467
2578 1 -57.2744 1.03848 440.104 -57.2744 1.03848 440.104
2595 1 -47.3128 1.75872 441.166 -47.3128 1.75872 441.166
2592 1 -48.9564 1.72095 443.094 -48.9564 1.72095 443.094
2880 1 -50.5994 1.68323 445.022 -50.5994 1.68323 445.022
2877 1 -52.2417 1.64565 446.95 -52.2417 1.64565 446.95
2873 1 -53.8835 1.60829 448.878 -53.8835 1.60829 448.878
2609 1 -39.6394 1.75212 441.724 -39.6394 1.75212 441.724
2606 1 -41.2835 1.71446 443.652 -41.2835 1.71446 443.652
2892 1 -42.9267 1.67681 445.58 -42.9267 1.67681 445.58
2890 1 -44.5691 1.63926 447.509 -44.5691 1.63926 447.509
3174 1 -46.2107 1.60188 449.437 -46.2107 1.60188 449.437
2618 1 -35.0729 3.21121 442.741 -35.0729 3.21121 442.741
2585 1 -52.7037 2.49536 441.116 -52.7037 2.49536 441.116
2583 1 -54.3473 2.4576 443.044 -54.3473 2.4576 443.044
2870 1 -55.9904 2.41999 444.973 -55.9904 2.41999 444.973
2867 1 -57.6331 2.38265 446.901 -57.6331 2.38265 446.901
2863 1 -59.2756 2.34568 448.829 -59.2756 2.34568 448.829
2599 1 -45.0288 2.48809 441.673 -45.0288 2.48809 441.673
2596 1 -46.6724 2.45036 443.601 -46.6724 2.45036 443.601
2883 1 -48.3153 2.4127 445.529 -48.3153 2.4127 445.529
2881 1 -49.9575 2.37517 447.458 -49.9575 2.37517 447.458
3164 1 -51.5991 2.33786 449.386 -51.5991 2.33786 449.386
2610 1 -39.0003 2.444 444.16 -39.0003 2.444 444.16
2896 1 -40.6435 2.40636 446.088 -40.6435 2.40636 446.088
2893 1 -42.2859 2.36881 448.016 -42.2859 2.36881 448.016
3178 1 -43.9274 2.33141 449.945 -43.9274 2.33141 449.945
2575 1 -58.9184 1.00088 442.033 -58.9184 1.00088 442.033
2591 1 -49.5971 1.02951 440.659 -49.5971 1.02951 440.659
2588 1 -51.2408 0.991697 442.587 -51.2408 0.991697 442.587
2876 1 -52.8839 0.953958 444.515 -52.8839 0.953958 444.515
2872 1 -54.5265 0.916382 446.443 -54.5265 0.916382 446.443
2869 1 -56.1686 0.879068 448.371 -56.1686 0.879068 448.371
2605 1 -41.9229 1.02264 441.217 -41.9229 1.02264 441.217
2602 1 -43.567 0.984957 443.144 -43.567 0.984957 443.144
2889 1 -45.2102 0.947292 445.073 -45.2102 0.947292 445.073
2886 1 -46.8527 0.909728 447.001 -46.8527 0.909728 447.001
3170 1 -48.4944 0.872347 448.93 -48.4944 0.872347 448.93
2899 1 -39.1818 0.903397 447.56 -39.1818 0.903397 447.56
3184 1 -40.8237 0.865924 449.488 -40.8237 0.865924 449.488
2580 1 -55.8108 3.9616 441.574 -55.8108 3.9616 441.574
2577 1 -57.4544 3.924 443.503 -57.4544 3.924 443.503
2864 1 -59.0976 3.88665 445.431 -59.0976 3.88665 445.431
2862 1 -59.9192 1.65438 446.395 -59.9192 1.65438 446.395
2594 1 -48.1347 3.95356 442.13 -48.1347 3.95356 442.13
2590 1 -49.778 3.9158 444.058 -49.778 3.9158 444.058
2878 1 -51.4206 3.87814 445.986 -51.4206 3.87814 445.986
2875 1 -53.0627 3.84066 447.914 -53.0627 3.84066 447.914
3159 1 -54.7043 3.80346 449.842 -54.7043 3.80346 449.842
2611 1 -38.8169 3.98465 440.761 -38.8169 3.98465 440.761
2608 1 -40.4616 3.94702 442.688 -40.4616 3.94702 442.688
2894 1 -42.1052 3.90936 444.616 -42.1052 3.90936 444.616
2891 1 -43.748 3.87175 446.544 -43.748 3.87175 446.544
2888 1 -45.39 3.83427 448.473 -45.39 3.83427 448.473
2904 1 -36.0779 3.86545 447.104 -36.0779 3.86545 447.104
2621 1 -33.4273 3.24869 440.814 -33.4273 3.24869 440.814
2617 1 -35.7107 2.51917 440.306 -35.7107 2.51917 440.306
2614 1 -37.356 2.48165 442.233 -37.356 2.48165 442.233
2908 1 -33.7954 0.167532 447.612 -33.7954 0.167532 447.612
2619 1 -34.2503 1.01625 441.777 -34.2503 1.01625 441.777
2906 1 -34.6167 2.3624 448.576 -34.6167 2.3624 448.576
2905 1 -35.2563 1.67057 446.14 -35.2563 1.67057 446.14
2620 1 -33.6124 1.70826 444.213 -33.6124 1.70826 444.213
3190 1 -37.7202 3.82788 449.032 -37.7202 3.82788 449.032
2902 1 -36.8991 1.63292 448.068 -36.8991 1.63292 448.068
2903 1 -36.7173 3.17357 444.668 -36.7173 3.17357 444.668
2615 1 -36.5335 0.286703 441.269 -36.5335 0.286703 441.269
2909 1 -32.9738 2.40014 446.648 -32.9738 2.40014 446.648
14 1 -52.0327 0.367793 399.006 -52.0327 4.79525 399.006
7 1 -56.4741 3.32015 398.123 -56.4741 3.32015 398.123
25 1 -44.2944 0.367788 399.483 -44.2944 4.79524 399.483
38 1 -36.5477 0.294521 399.984 -36.5477 4.72197 399.984
23 1 -45.9347 0.313148 401.398 -45.9347 4.7406 401.398
287 1 -49.2187 0.232271 405.229 -49.2187 4.65972 405.229
878 1 -40.4318 0.0617251 414.043 -40.4318 4.48918 414.043
579 1 -46.4706 0.112776 411.56 -46.4706 4.54023 411.56
585 1 -43.1736 0.183616 407.708 -43.1736 4.61107 407.708
290 1 -47.5776 0.271532 403.308 -47.5776 4.69898 403.308
11 1 -53.6207 0.305494 400.873 -53.6207 4.73295 400.873
595 1 -37.133 0.132187 410.194 -37.133 4.55964 410.194
1134 1 -59.1022 0.0206572 416.784 -59.1022 4.44811 416.784
283 1 -50.8635 0.196361 407.153 -50.8635 4.62381 407.153
582 1 -44.8221 0.148312 409.634 -44.8221 4.57576 409.634
276 1 -55.2711 0.286849 402.757 -55.2711 4.7143 402.757
569 1 -52.5098 0.161646 409.078 -52.5098 4.5891 409.078
847 1 -57.4541 0.0563158 414.857 -57.4541 4.48377 414.857
272 1 -56.9059 0.253806 404.676 -56.9059 4.68126 404.676
3 1 -58.288 3.3224 399.832 -58.288 3.3224 399.832
35 1 -38.2155 0.280457 401.919 -38.2155 4.70791 401.919
598 1 -35.4829 0.166693 408.27 -35.4829 4.59415 408.27
850 1 -55.8055 0.0913948 412.931 -55.8055 4.51885 412.931