ITEM: TIMESTEP
0
ITEM: NUMBER OF ATOMS
4630
ITEM: BOX BOUNDS xy xz yz pp pp pp
-6.2040988501800001e+01 1.0506002035000000e+02 0.0000000000000000e+00
0.0000000000000000e+00 4.4274527100805940e+00 0.0000000000000000e+00
3.8000000000000000e+02 5.0000000000000000e+02 0.0000000000000000e+00
ITEM: ATOMS id type x y z xu yu zu
27 1 -44.6807 2.36012 399.147 -44.6807 2.36012 399.147
36 1 -39.1534 1.61634 399.202 -39.1534 1.61634 399.202
31 1 -42.3029 3.04625 399.586 -42.3029 3.04625 399.586
22 1 -47.8298 3.79761 399.56 -47.8298 3.79761 399.56
20 1 -48.6742 1.5784 400.421 -48.6742 1.5784 400.421
40 1 -36.7783 2.30442 399.645 -36.7783 2.30442 399.645
34 1 -39.9767 3.81561 400.052 -39.9767 3.81561 400.052
17 1 -51.0051 0.823421 399.963 -51.0051 0.823421 399.963
9 1 -56.4893 1.50774 399.88 -56.4893 1.50774 399.88
43 1 -34.4541 3.07463 400.113 -34.4541 3.07463 400.113
12 1 -54.1948 2.33354 400.374 -54.1948 2.33354 400.374
5 1 -58.8589 0.855736 399.422 -58.8589 0.855736 399.422
29 1 -43.1505 0.818412 400.45 -43.1505 0.818412 400.45
853 1 -55.8877 2.87538 414.702 -55.8877 2.87538 414.702
873 1 -44.8577 1.39764 414.816 -44.8577 1.39764 414.816
865 1 -48.8886 0.642832 416.211 -48.8886 0.642832 416.211
1174 1 -36.3728 2.09652 417.781 -36.3728 2.09652 417.781
883 1 -39.3416 0.657687 414.875 -39.3416 0.657687 414.875
863 1 -50.3737 2.1373 414.759 -50.3737 2.1373 414.759
315 1 -34.6692 1.53544 403.436 -34.6692 1.53544 403.436
307 1 -39.5525 2.98582 405.775 -39.5525 2.98582 405.775
1150 1 -50.5851 0.618552 418.109 -50.5851 0.618552 418.109
855 1 -54.4029 1.38119 416.154 -54.4029 1.38119 416.154
310 1 -37.8539 3.00917 403.882 -37.8539 3.00917 403.882
871 1 -45.7065 3.59958 415.765 -45.7065 3.59958 415.765
16 1 -51.8467 3.02322 400.831 -51.8467 3.02322 400.831
309 1 -38.0662 1.49116 407.226 -38.0662 1.49116 407.226
1156 1 -47.4036 3.57575 417.663 -47.4036 3.57575 417.663
867 1 -48.0402 2.86854 415.262 -48.0402 2.86854 415.262
1159 1 -45.0703 4.30693 418.166 -45.0703 4.30693 418.166
1168 1 -39.555 3.56736 418.225 -39.555 3.56736 418.225
1170 1 -38.7061 1.36537 417.276 -38.7061 1.36537 417.276
594 1 -38.9154 3.69342 408.175 -38.9154 3.69342 408.175
37 1 -38.4878 2.29804 401.5 -38.4878 2.29804 401.5
851 1 -56.7357 0.649442 415.651 -56.7357 0.649442 415.651
857 1 -53.555 3.60718 415.205 -53.555 3.60718 415.205
592 1 -39.7643 1.46805 409.123 -39.7643 1.46805 409.123
849 1 -57.5837 2.85096 416.601 -57.5837 2.85096 416.601
877 1 -42.5241 2.12863 415.32 -42.5241 2.12863 415.32
1143 1 -55.2509 3.58264 417.104 -55.2509 3.58264 417.104
1140 1 -56.9469 3.55807 419.003 -56.9469 3.55807 419.003
845 1 -59.9165 2.11949 416.098 -59.9165 2.11949 416.098
875 1 -43.3729 4.3306 416.269 -43.3729 4.3306 416.269
886 1 -37.6437 0.68107 412.978 -37.6437 0.68107 412.978
891 1 -34.4608 3.63729 412.534 -34.4608 3.63729 412.534
39 1 -37.009 0.80233 402.925 -37.009 0.80233 402.925
1177 1 -34.8885 0.602303 419.234 -34.8885 0.602303 419.234
1167 1 -40.4038 1.34185 419.174 -40.4038 1.34185 419.174
8 1 -57.3574 3.76801 400.851 -57.3574 3.76801 400.851
869 1 -46.5551 1.37399 416.714 -46.5551 1.37399 416.714
1136 1 -59.2796 2.82647 418.5 -59.2796 2.82647 418.5
1162 1 -43.5857 2.8125 419.619 -43.5857 2.8125 419.619
15 1 -52.7029 0.814327 401.824 -52.7029 0.814327 401.824
280 1 -54.4015 0.791983 403.708 -54.4015 0.791983 403.708
277 1 -56.1062 0.779805 405.597 -56.1062 0.779805 405.597
273 1 -57.8003 0.755501 407.495 -57.8003 0.755501 407.495
560 1 -59.4946 0.730278 409.396 -59.4946 0.730278 409.396
557 1 -61.1904 0.705808 411.295 -61.1904 0.705808 411.295
26 1 -44.8545 0.816211 402.357 -44.8545 0.816211 402.357
294 1 -46.5556 0.795872 404.265 -46.5556 0.795872 404.265
291 1 -48.2531 0.76936 406.163 -48.2531 0.76936 406.163
576 1 -49.95 0.744457 408.06 -49.95 0.744457 408.06
573 1 -51.6477 0.721664 409.956 -51.6477 0.721664 409.956
570 1 -53.3441 0.698157 411.853 -53.3441 0.698157 411.853
854 1 -55.0398 0.67385 413.752 -55.0398 0.67385 413.752
305 1 -40.4006 0.760759 406.722 -40.4006 0.760759 406.722
589 1 -42.0985 0.737259 408.62 -42.0985 0.737259 408.62
586 1 -43.7962 0.713667 410.518 -43.7962 0.713667 410.518
872 1 -45.4939 0.690172 412.416 -45.4939 0.690172 412.416
599 1 -35.9455 0.704317 411.081 -35.9455 0.704317 411.081
1132 1 -61.6124 2.09503 417.998 -61.6124 2.09503 417.998
4 1 -59.0884 3.78238 402.677 -59.0884 3.78238 402.677
268 1 -60.769 3.74527 404.589 -60.769 3.74527 404.589
1152 1 -49.7369 2.84446 417.16 -49.7369 2.84446 417.16
19 1 -49.5338 3.76587 401.368 -49.5338 3.76587 401.368
286 1 -51.2225 3.74379 403.246 -51.2225 3.74379 403.246
282 1 -52.9171 3.72574 405.151 -52.9171 3.72574 405.151
279 1 -54.6182 3.7091 407.047 -54.6182 3.7091 407.047
565 1 -56.3142 3.68695 408.947 -56.3142 3.68695 408.947
563 1 -58.0094 3.66267 410.847 -58.0094 3.66267 410.847
846 1 -59.7053 3.63844 412.747 -59.7053 3.63844 412.747
32 1 -41.6739 3.77094 401.937 -41.6739 3.77094 401.937
300 1 -43.3735 3.75063 403.824 -43.3735 3.75063 403.824
297 1 -45.0707 3.72702 405.718 -45.0707 3.72702 405.718
293 1 -46.7674 3.70299 407.615 -46.7674 3.70299 407.615
578 1 -48.4647 3.6789 409.512 -48.4647 3.6789 409.512
575 1 -50.1623 3.65546 411.409 -50.1623 3.65546 411.409
860 1 -51.8589 3.63159 413.306 -51.8589 3.63159 413.306
591 1 -40.6133 3.67002 410.072 -40.6133 3.67002 410.072
588 1 -42.3111 3.64655 411.97 -42.3111 3.64655 411.97
874 1 -44.0089 3.62309 413.868 -44.0089 3.62309 413.868
10 1 -55.8856 2.27542 402.262 -55.8856 2.27542 402.262
274 1 -57.5972 2.27925 404.139 -57.5972 2.27925 404.139
271 1 -59.2858 2.25117 406.042 -59.2858 2.25117 406.042
558 1 -60.9795 2.22501 407.944 -60.9795 2.22501 407.944
24 1 -46.3618 2.31208 400.949 -46.3618 2.31208 400.949
21 1 -48.05 2.28827 402.816 -48.05 2.28827 402.816
288 1 -49.7387 2.26145 404.712 -49.7387 2.26145 404.712
285 1 -51.4346 2.23627 406.608 -51.4346 2.23627 406.608
571 1 -53.1331 2.21514 408.503 -53.1331 2.21514 408.503
568 1 -54.8292 2.19228 410.4 -54.8292 2.19228 410.4
852 1 -56.5246 2.16808 412.3 -56.5246 2.16808 412.3
848 1 -58.2205 2.14382 414.199 -58.2205 2.14382 414.199
306 1 -40.1898 2.27691 403.374 -40.1898 2.27691 403.374
302 1 -41.8871 2.25481 405.269 -41.8871 2.25481 405.269
299 1 -43.5841 2.23181 407.167 -43.5841 2.23181 407.167
583 1 -45.2815 2.20828 409.066 -45.2815 2.20828 409.066
581 1 -46.9792 2.18465 410.964 -46.9792 2.18465 410.964
866 1 -48.6768 2.16118 412.861 -48.6768 2.16118 412.861
880 1 -40.8263 2.15209 413.422 -40.8263 2.15209 413.422
312 1 -36.368 1.51376 405.328 -36.368 1.51376 405.328
2 1 -60.5887 0.866658 401.243 -60.5887 0.866658 401.243
13 1 -53.5445 3.01327 402.744 -53.5445 3.01327 402.744
278 1 -55.2532 2.99983 404.646 -55.2532 2.99983 404.646
275 1 -56.9531 2.98194 406.543 -56.9531 2.98194 406.543
562 1 -58.6469 2.95643 408.445 -58.6469 2.95643 408.445
559 1 -60.3423 2.93171 410.345 -60.3423 2.93171 410.345
1166 1 -41.2525 3.54376 420.122 -41.2525 3.54376 420.122
889 1 -35.31 1.41201 413.482 -35.31 1.41201 413.482
28 1 -44.0096 3.04062 401.443 -44.0096 3.04062 401.443
296 1 -45.71 3.01969 403.319 -45.71 3.01969 403.319
292 1 -47.4054 2.99642 405.215 -47.4054 2.99642 405.215
289 1 -49.1012 2.97063 407.112 -49.1012 2.97063 407.112
574 1 -50.7989 2.94689 409.008 -50.7989 2.94689 409.008
572 1 -52.4961 2.92386 410.905 -52.4961 2.92386 410.905
856 1 -54.192 2.89979 412.803 -54.192 2.89979 412.803
303 1 -41.25 2.96254 407.671 -41.25 2.96254 407.671
587 1 -42.9474 2.93912 409.569 -42.9474 2.93912 409.569
584 1 -44.6451 2.91561 411.467 -44.6451 2.91561 411.467
870 1 -46.3428 2.89217 413.364 -46.3428 2.89217 413.364
6 1 -58.2322 1.57358 401.734 -58.2322 1.57358 401.734
270 1 -59.9255 1.54806 403.633 -59.9255 1.54806 403.633
267 1 -61.6153 1.51794 405.54 -61.6153 1.51794 405.54
890 1 -34.6747 2.11979 415.884 -34.6747 2.11979 415.884
18 1 -50.3709 1.5426 402.314 -50.3709 1.5426 402.314
284 1 -52.067 1.52291 404.208 -52.067 1.52291 404.208
281 1 -53.7685 1.50456 406.102 -53.7685 1.50456 406.102
567 1 -55.4669 1.48513 407.998 -55.4669 1.48513 407.998
564 1 -57.1619 1.46113 409.897 -57.1619 1.46113 409.897
561 1 -58.8574 1.43684 411.797 -58.8574 1.43684 411.797
844 1 -60.5534 1.41259 413.697 -60.5534 1.41259 413.697
33 1 -40.8408 1.56862 401 -40.8408 1.56862 401
30 1 -42.53 1.54376 402.866 -42.53 1.54376 402.866
298 1 -44.2223 1.52459 404.766 -44.2223 1.52459 404.766
295 1 -45.9188 1.50142 406.666 -45.9188 1.50142 406.666
580 1 -47.6159 1.47702 408.564 -47.6159 1.47702 408.564
577 1 -49.3136 1.45336 410.46 -49.3136 1.45336 410.46
862 1 -51.0107 1.42986 412.357 -51.0107 1.42986 412.357
590 1 -41.4622 1.4446 411.021 -41.4622 1.4446 411.021
876 1 -43.16 1.4211 412.919 -43.16 1.4211 412.919
1163 1 -42.737 0.610645 418.67 -42.737 0.610645 418.67
1153 1 -49.1003 3.55155 419.562 -49.1003 3.55155 419.562
311 1 -37.2164 3.71671 406.278 -37.2164 3.71671 406.278
42 1 -35.318 0.827405 401.061 -35.318 0.827405 401.061
1135 1 -60.1275 0.60045 419.45 -60.1275 0.60045 419.45
1171 1 -38.0706 2.0731 419.678 -38.0706 2.0731 419.678
1139 1 -57.7948 1.33204 419.952 -57.7948 1.33204 419.952
601 1 -35.0963 2.92955 410.132 -35.0963 2.92955 410.132
313 1 -35.5154 3.74015 404.381 -35.5154 3.74015 404.381
858 1 -52.707 1.40568 414.255 -52.707 1.40568 414.255
868 1 -47.1916 0.666684 414.313 -47.1916 0.666684 414.313
1147 1 -52.9181 4.31439 417.606 -52.9181 4.31439 417.606
843 1 -61.4013 3.61415 414.646 -61.4013 3.61415 414.646
593 1 -39.1284 2.17553 411.525 -39.1284 2.17553 411.525
308 1 -38.7029 0.783351 404.824 -38.7029 0.783351 404.824
861 1 -51.2219 4.33889 415.708 -51.2219 4.33889 415.708
1158 1 -45.9188 2.08125 419.115 -45.9188 2.08125 419.115
884 1 -38.4927 2.88312 413.926 -38.4927 2.88312 413.926
881 1 -40.1906 2.8597 415.824 -40.1906 2.8597 415.824
885 1 -37.8571 3.5908 416.328 -37.8571 3.5908 416.328
859 1 -52.07 2.11293 416.657 -52.07 2.11293 416.657
596 1 -37.4304 2.1988 409.628 -37.4304 2.1988 409.628
879 1 -41.0395 0.634229 416.772 -41.0395 0.634229 416.772
1172 1 -37.2217 4.29855 418.729 -37.2217 4.29855 418.729
1154 1 -48.252 1.34997 418.612 -48.252 1.34997 418.612
887 1 -37.0081 1.38875 415.379 -37.0081 1.38875 415.379
597 1 -36.7946 2.90643 412.029 -36.7946 2.90643 412.029
1161 1 -44.2217 2.10507 417.217 -44.2217 2.10507 417.217
1138 1 -58.4316 0.624998 417.55 -58.4316 0.624998 417.55
1149 1 -51.4333 2.82004 419.059 -51.4333 2.82004 419.059
41 1 -36.1524 3.02922 401.997 -36.1524 3.02922 401.997
888 1 -36.1591 3.61412 414.431 -36.1591 3.61412 414.431
1165 1 -41.8883 2.83619 417.721 -41.8883 2.83619 417.721
1141 1 -56.0989 1.35664 418.053 -56.0989 1.35664 418.053
1145 1 -53.7661 2.08837 418.556 -53.7661 2.08837 418.556
600 1 -35.7322 2.22178 407.731 -35.7322 2.22178 407.731
1148 1 -52.2813 0.594029 420.008 -52.2813 0.594029 420.008
882 1 -39.9774 4.37754 412.474 -39.9774 4.37754 412.474
1157 1 -46.7672 4.28294 420.065 -46.7672 4.28294 420.065
1144 1 -54.6141 4.28979 419.505 -54.6141 4.28979 419.505
602 1 -34.2469 0.727327 409.184 -34.2469 0.727327 409.184
1131 1 -61.8232 0.575769 421.349 -61.8232 0.575769 421.349
1755 1 -34.6808 2.70257 428.336 -34.6808 2.70257 428.336
1460 1 -39.1327 2.75717 423.977 -39.1327 2.75717 423.977
2308 1 -48.6712 3.31755 437.772 -48.6712 3.31755 437.772
2316 1 -43.7973 1.87324 435.426 -43.7973 1.87324 435.426
2312 1 -46.3395 4.04973 438.275 -46.3395 4.04973 438.275
1464 1 -36.7999 3.48868 424.481 -36.7999 3.48868 424.481
1461 1 -38.284 0.555328 423.028 -38.284 0.555328 423.028
2039 1 -37.4384 3.36208 434.534 -37.4384 3.36208 434.534
2613 1 -39.3452 1.81894 439.785 -39.3452 1.81894 439.785
1467 1 -34.4672 4.22019 424.985 -34.4672 4.22019 424.985
2603 1 -44.8552 2.55577 439.727 -44.8552 2.55577 439.727
1443 1 -48.4638 4.25865 421.963 -48.4638 4.25865 421.963
1748 1 -38.4971 3.46487 426.379 -38.4971 3.46487 426.379
2023 1 -46.129 1.14113 434.922 -46.129 1.14113 434.922
2310 1 -47.1868 1.82356 439.224 -47.1868 1.82356 439.224
1151 1 -49.9485 1.32562 420.511 -49.9485 1.32562 420.511
2303 1 -51.8503 0.359172 438.219 -51.8503 0.359172 438.219
2299 1 -54.1823 4.05447 437.716 -54.1823 4.05447 437.716
2033 1 -40.6179 0.40398 434.979 -40.6179 0.40398 434.979
1433 1 -53.9773 0.569377 421.907 -53.9773 0.569377 421.907
1430 1 -55.6732 0.544624 423.806 -55.6732 0.544624 423.806
1426 1 -57.3688 0.519772 425.706 -57.3688 0.519772 425.706
1713 1 -59.0641 0.494833 427.605 -59.0641 0.494833 427.605
1710 1 -60.7594 0.469828 429.505 -60.7594 0.469828 429.505
2330 1 -35.3188 2.5759 438.389 -35.3188 2.5759 438.389
1160 1 -44.4342 0.58682 420.568 -44.4342 0.58682 420.568
1447 1 -46.131 0.562702 422.466 -46.131 0.562702 422.466
1444 1 -47.8273 0.538328 424.365 -47.8273 0.538328 424.365
1730 1 -49.5234 0.513752 426.264 -49.5234 0.513752 426.264
1727 1 -51.2191 0.489018 428.163 -51.2191 0.489018 428.163
1724 1 -52.9146 0.464158 430.062 -52.9146 0.464158 430.062
2008 1 -54.6097 0.439201 431.962 -54.6097 0.439201 431.962
2006 1 -56.3047 0.41418 433.861 -56.3047 0.41418 433.861
1458 1 -39.9812 0.531503 424.926 -39.9812 0.531503 424.926
1743 1 -41.678 0.507421 426.824 -41.678 0.507421 426.824
1740 1 -43.3743 0.483098 428.722 -43.3743 0.483098 428.722
2026 1 -45.0702 0.458568 430.621 -45.0702 0.458568 430.621
2022 1 -46.7658 0.433871 432.52 -46.7658 0.433871 432.52
2019 1 -48.4609 0.409047 434.42 -48.4609 0.409047 434.42
2309 1 -47.8239 1.11628 436.822 -47.8239 1.11628 436.822
1137 1 -58.6427 3.53343 420.902 -58.6427 3.53343 420.902
1421 1 -60.3384 3.50868 422.801 -60.3384 3.50868 422.801
1439 1 -50.7966 3.52709 421.46 -50.7966 3.52709 421.46
1435 1 -52.4926 3.50246 423.359 -52.4926 3.50246 423.359
1432 1 -54.1884 3.4777 425.258 -54.1884 3.4777 425.258
1719 1 -55.884 3.45283 427.158 -55.884 3.45283 427.158
1716 1 -57.5793 3.42787 429.057 -57.5793 3.42787 429.057
2001 1 -59.2744 3.40285 430.957 -59.2744 3.40285 430.957
1998 1 -60.9694 3.3778 432.857 -60.9694 3.3778 432.857
2323 1 -39.134 3.33753 436.432 -39.134 3.33753 436.432
1453 1 -42.9497 3.51993 422.02 -42.9497 3.51993 422.02
1450 1 -44.6465 3.49583 423.919 -44.6465 3.49583 423.919
1446 1 -46.3429 3.47148 425.817 -46.3429 3.47148 425.817
1732 1 -48.0389 3.44692 427.716 -48.0389 3.44692 427.716
1729 1 -49.7346 3.42221 429.615 -49.7346 3.42221 429.615
2014 1 -51.43 3.39736 431.515 -51.43 3.39736 431.515
2011 1 -53.125 3.37241 433.414 -53.125 3.37241 433.414
1745 1 -40.1939 3.44079 428.277 -40.1939 3.44079 428.277
1742 1 -41.8902 3.41647 430.175 -41.8902 3.41647 430.175
2028 1 -43.586 3.39195 432.074 -43.586 3.39195 432.074
2025 1 -45.2815 3.36725 433.973 -45.2815 3.36725 433.973
1427 1 -57.1579 2.03901 422.354 -57.1579 2.03901 422.354
1424 1 -58.8536 2.0142 424.253 -58.8536 2.0142 424.253
1711 1 -60.549 1.9893 426.153 -60.549 1.9893 426.153
2322 1 -39.9816 1.11146 437.382 -39.9816 1.11146 437.382
1750 1 -37.0132 1.97085 427.832 -37.0132 1.97085 427.832
1155 1 -47.6156 2.0571 421.014 -47.6156 2.0571 421.014
1441 1 -49.3119 2.03269 422.912 -49.3119 2.03269 422.912
1438 1 -51.008 2.00809 424.811 -51.008 2.00809 424.811
1725 1 -52.7037 1.98334 426.711 -52.7037 1.98334 426.711
1722 1 -54.3993 1.95847 428.61 -54.3993 1.95847 428.61
1718 1 -56.0945 1.93351 430.509 -56.0945 1.93351 430.509
2003 1 -57.7895 1.90848 432.409 -57.7895 1.90848 432.409
2000 1 -59.4844 1.88343 434.309 -59.4844 1.88343 434.309
1459 1 -39.7682 2.0495 421.575 -39.7682 2.0495 421.575
1455 1 -41.4654 2.02567 423.473 -41.4654 2.02567 423.473
1452 1 -43.1622 2.00158 425.371 -43.1622 2.00158 425.371
1737 1 -44.8585 1.97725 427.27 -44.8585 1.97725 427.27
1735 1 -46.5545 1.95271 429.169 -46.5545 1.95271 429.169
2020 1 -48.2501 1.928 431.068 -48.2501 1.928 431.068
2017 1 -49.9454 1.90317 432.967 -49.9454 1.90317 432.967
2034 1 -40.4061 1.92246 431.628 -40.4061 1.92246 431.628
2031 1 -42.1019 1.89793 433.527 -42.1019 1.89793 433.527
2029 1 -42.9497 4.09933 434.476 -42.9497 4.09933 434.476
1146 1 -53.1294 2.79544 420.957 -53.1294 2.79544 420.957
1431 1 -54.8253 2.77074 422.857 -54.8253 2.77074 422.857
1428 1 -56.521 2.74594 424.756 -56.521 2.74594 424.756
1715 1 -58.2165 2.72104 426.655 -58.2165 2.72104 426.655
1712 1 -59.9118 2.69606 428.555 -59.9118 2.69606 428.555
1708 1 -61.6069 2.67104 430.455 -61.6069 2.67104 430.455
1747 1 -38.7099 1.94678 429.73 -38.7099 1.94678 429.73
1449 1 -45.2826 2.78852 421.517 -45.2826 2.78852 421.517
1445 1 -46.9792 2.76427 423.415 -46.9792 2.76427 423.415
1442 1 -48.6754 2.73979 425.314 -48.6754 2.73979 425.314
1728 1 -50.3713 2.71513 427.213 -50.3713 2.71513 427.213
1726 1 -52.0669 2.69033 429.112 -52.0669 2.69033 429.112
2010 1 -53.7622 2.66542 431.012 -53.7622 2.66542 431.012
2007 1 -55.4572 2.64042 432.911 -55.4572 2.64042 432.911
1456 1 -40.8296 2.73322 425.875 -40.8296 2.73322 425.875
1741 1 -42.5262 2.70901 427.773 -42.5262 2.70901 427.773
1738 1 -44.2223 2.68458 429.672 -44.2223 2.68458 429.672
2024 1 -45.918 2.65996 431.571 -45.918 2.65996 431.571
2021 1 -47.6134 2.6352 433.47 -47.6134 2.6352 433.47
2035 1 -39.7701 2.63 434.03 -39.7701 2.63 434.03
1754 1 -35.316 1.99466 425.934 -35.316 1.99466 425.934
1423 1 -59.4906 1.30734 421.852 -59.4906 1.30734 421.852
1420 1 -61.1861 1.28253 423.751 -61.1861 1.28253 423.751
2044 1 -34.2587 1.89261 434.089 -34.2587 1.89261 434.089
1437 1 -51.6446 1.30106 422.41 -51.6446 1.30106 422.41
1434 1 -53.3406 1.27637 424.309 -53.3406 1.27637 424.309
1721 1 -55.0362 1.25155 426.208 -55.0362 1.25155 426.208
1717 1 -56.7317 1.22663 428.107 -56.7317 1.22663 428.107
1714 1 -58.4269 1.20164 430.007 -58.4269 1.20164 430.007
1999 1 -60.1219 1.1766 431.907 -60.1219 1.1766 431.907
1997 1 -61.8168 1.15155 433.806 -61.8168 1.15155 433.806
1164 1 -42.1012 1.31815 421.071 -42.1012 1.31815 421.071
1451 1 -43.7982 1.29419 422.969 -43.7982 1.29419 422.969
1448 1 -45.4947 1.26996 424.868 -45.4947 1.26996 424.868
1734 1 -47.1909 1.2455 426.767 -47.1909 1.2455 426.767
1731 1 -48.8868 1.22086 428.666 -48.8868 1.22086 428.666
2016 1 -50.5823 1.19607 430.565 -50.5823 1.19607 430.565
2012 1 -52.2775 1.17117 432.464 -52.2775 1.17117 432.464
2009 1 -53.9725 1.14619 434.364 -53.9725 1.14619 434.364
1746 1 -39.3456 1.23913 427.328 -39.3456 1.23913 427.328
1744 1 -41.0421 1.21493 429.226 -41.0421 1.21493 429.226
2030 1 -42.7381 1.19051 431.124 -42.7381 1.19051 431.124
2027 1 -44.4338 1.16589 433.023 -44.4338 1.16589 433.023
2325 1 -38.2863 1.1361 435.483 -38.2863 1.1361 435.483
1749 1 -37.8616 4.17257 428.78 -37.8616 4.17257 428.78
1425 1 -58.0058 4.24035 423.304 -58.0058 4.24035 423.304
1736 1 -45.7066 4.17873 428.219 -45.7066 4.17873 428.219
1142 1 -55.4621 2.06373 420.455 -55.4621 2.06373 420.455
1720 1 -55.2469 4.15973 429.56 -55.2469 4.15973 429.56
2005 1 -56.942 4.13473 431.459 -56.942 4.13473 431.459
2002 1 -58.637 4.10968 433.359 -58.637 4.10968 433.359
1169 1 -38.9195 4.27505 420.626 -38.9195 4.27505 420.626
1723 1 -53.5515 4.18464 427.66 -53.5515 4.18464 427.66
1440 1 -50.16 4.23414 423.862 -50.16 4.23414 423.862
1733 1 -47.4024 4.1541 430.118 -47.4024 4.1541 430.118
2018 1 -49.0978 4.12933 432.017 -49.0978 4.12933 432.017
2015 1 -50.7929 4.10444 433.917 -50.7929 4.10444 433.917
2036 1 -39.5581 4.14838 430.679 -39.5581 4.14838 430.679
2032 1 -41.2541 4.12395 432.577 -41.2541 4.12395 432.577
2326 1 -37.6502 1.84367 437.886 -37.6502 1.84367 437.886
1752 1 -36.1646 4.19652 426.883 -36.1646 4.19652 426.883
1457 1 -40.6169 4.25135 422.524 -40.6169 4.25135 422.524
2043 1 -34.894 1.18477 431.687 -34.894 1.18477 431.687
2286 1 -61.179 1.85838 436.208 -61.179 1.85838 436.208
2319 1 -41.6765 1.0867 439.281 -41.6765 1.0867 439.281
1436 1 -51.8559 4.20946 425.761 -51.8559 4.20946 425.761
1422 1 -59.7013 4.21549 425.203 -59.7013 4.21549 425.203
1173 1 -36.5864 0.578914 421.131 -36.5864 0.578914 421.131
2293 1 -57.3616 1.09613 438.163 -57.3616 1.09613 438.163
2289 1 -59.6939 0.364092 437.661 -59.6939 0.364092 437.661
2295 1 -55.8766 4.02946 439.616 -55.8766 4.02946 439.616
1465 1 -35.9512 1.28677 423.532 -35.9512 1.28677 423.532
2315 1 -44.008 0.354477 438.778 -44.008 0.354477 438.778
2331 1 -35.1067 4.09418 435.038 -35.1067 4.09418 435.038
2297 1 -55.0295 1.82824 438.666 -55.0295 1.82824 438.666
2324 1 -38.4977 4.04504 438.835 -38.4977 4.04504 438.835
2306 1 -49.5185 1.09136 438.721 -49.5185 1.09136 438.721
2285 1 -61.3883 0.3391 439.56 -61.3883 0.3391 439.56
1462 1 -37.6486 1.26308 425.43 -37.6486 1.26308 425.43
1751 1 -36.3778 2.67864 430.233 -36.3778 2.67864 430.233
2329 1 -35.9547 1.86824 435.987 -35.9547 1.86824 435.987
2042 1 -35.7423 3.38642 432.636 -35.7423 3.38642 432.636
2041 1 -36.5904 1.16055 433.585 -36.5904 1.16055 433.585
2593 1 -50.3656 3.29261 439.671 -50.3656 3.29261 439.671
2328 1 -36.1665 0.349841 439.339 -36.1665 0.349841 439.339
2301 1 -52.6975 2.56041 439.168 -52.6975 2.56041 439.168
1466 1 -35.1024 3.51225 422.584 -35.1024 3.51225 422.584
2298 1 -54.8198 3.3474 435.314 -54.8198 3.3474 435.314
2321 1 -40.8291 3.31282 438.331 -40.8291 3.31282 438.331
2313 1 -45.4922 1.84844 437.325 -45.4922 1.84844 437.325
2294 1 -56.5144 3.32237 437.213 -56.5144 3.32237 437.213
2304 1 -51.0031 2.58538 437.269 -51.0031 2.58538 437.269
2300 1 -53.335 1.85325 436.766 -53.335 1.85325 436.766
2290 1 -58.8467 2.59033 436.711 -58.8467 2.59033 436.711
2318 1 -42.3132 0.379283 436.878 -42.3132 0.379283 436.878
2327 1 -36.8025 4.06971 436.936 -36.8025 4.06971 436.936
2004 1 -57.152 2.61538 434.811 -57.152 2.61538 434.811
2013 1 -51.6404 1.87824 434.866 -51.6404 1.87824 434.866
2288 1 -60.3317 4.08463 435.259 -60.3317 4.08463 435.259
2037 1 -38.9222 0.428516 433.081 -38.9222 0.428516 433.081
1739 1 -44.0104 4.20317 426.32 -44.0104 4.20317 426.32
1753 1 -35.5293 0.476913 429.285 -35.5293 0.476913 429.285
2307 1 -49.3084 2.61033 435.369 -49.3084 2.61033 435.369
2314 1 -44.6448 4.07458 436.375 -44.6448 4.07458 436.375
2040 1 -37.226 0.45284 431.182 -37.226 0.45284 431.182
2320 1 -41.4656 2.60537 435.929 -41.4656 2.60537 435.929
2292 1 -57.9994 0.389131 435.761 -57.9994 0.389131 435.761
2311 1 -46.9765 3.34244 435.872 -46.9765 3.34244 435.872
2302 1 -52.4877 4.07948 435.816 -52.4877 4.07948 435.816
2296 1 -55.6671 1.12116 436.263 -55.6671 1.12116 436.263
1463 1 -37.4353 2.78087 422.079 -37.4353 2.78087 422.079
2287 1 -60.5411 2.56531 438.611 -60.5411 2.56531 438.611
2291 1 -58.2088 3.29734 439.113 -58.2088 3.29734 439.113
2317 1 -43.1606 2.58062 437.828 -43.1606 2.58062 437.828
2038 1 -38.0742 2.65443 432.132 -38.0742 2.65443 432.132
2305 1 -50.1558 0.384135 436.319 -50.1558 0.384135 436.319
2332 1 -34.4711 0.374455 437.44 -34.4711 0.374455 437.44
1709 1 -61.3967 4.19054 427.103 -61.3967 4.19054 427.103
1468 1 -34.2534 1.31023 421.635 -34.2534 1.31023 421.635
1454 1 -42.3138 4.22739 424.422 -42.3138 4.22739 424.422
1429 1 -56.31 4.26511 421.404 -56.31 4.26511 421.404
1133 1 -60.9754 2.80185 420.399 -60.9754 2.80185 420.399
1175 1 -35.7375 2.80436 420.182 -35.7375 2.80436 420.182
2616 1 -37.2246 1.03253 443.641 -37.2246 1.03253 443.641
2901 1 -38.9185 1.00766 445.54 -38.9185 1.00766 445.54
2907 1 -35.7408 3.96613 445.094 -35.7408 3.96613 445.094
3194 1 -36.797 0.22116 449.397 -36.797 0.22116 449.397
2587 1 -53.5446 0.334194 440.118 -53.5446 0.334194 440.118
2597 1 -48.0339 4.02483 440.174 -48.0339 4.02483 440.174
2584 1 -55.2386 0.309237 442.018 -55.2386 0.309237 442.018
2581 1 -56.9324 0.284336 443.918 -56.9324 0.284336 443.918
2868 1 -58.6261 0.259527 445.817 -58.6261 0.259527 445.817
2865 1 -60.3197 0.234846 447.717 -60.3197 0.234846 447.717
2601 1 -45.7024 0.329611 440.677 -45.7024 0.329611 440.677
2598 1 -47.3964 0.30473 442.577 -47.3964 0.30473 442.577
2885 1 -49.0902 0.279875 444.477 -49.0902 0.279875 444.477
2882 1 -50.7837 0.255086 446.376 -50.7837 0.255086 446.376
2879 1 -52.4769 0.23041 448.276 -52.4769 0.23041 448.276
2612 1 -39.5556 0.300238 443.137 -39.5556 0.300238 443.137
2898 1 -41.2495 0.275377 445.036 -41.2495 0.275377 445.036
2895 1 -42.943 0.250546 446.936 -42.943 0.250546 446.936
3180 1 -44.6361 0.225776 448.836 -44.6361 0.225776 448.836
2576 1 -59.903 3.27237 441.013 -59.903 3.27237 441.013
2574 1 -61.5971 3.24748 442.912 -61.5971 3.24748 442.912
2589 1 -52.0597 3.26768 441.571 -52.0597 3.26768 441.571
2586 1 -53.7536 3.24277 443.471 -53.7536 3.24277 443.471
2874 1 -55.4472 3.21794 445.37 -55.4472 3.21794 445.37
2871 1 -57.1407 3.19321 447.27 -57.1407 3.19321 447.27
3155 1 -58.834 3.16861 449.169 -58.834 3.16861 449.169
2607 1 -42.5238 3.28801 440.231 -42.5238 3.28801 440.231
2604 1 -44.218 3.26315 442.13 -44.218 3.26315 442.13
2600 1 -45.9119 3.23828 444.03 -45.9119 3.23828 444.03
2887 1 -47.6055 3.21346 445.93 -47.6055 3.21346 445.93
2884 1 -49.2987 3.18871 447.829 -49.2987 3.18871 447.829
3168 1 -50.9917 3.16409 449.729 -50.9917 3.16409 449.729
2900 1 -39.7653 3.20896 446.49 -39.7653 3.20896 446.49
2897 1 -41.4586 3.18414 448.389 -41.4586 3.18414 448.389
2582 1 -56.7237 1.80324 440.565 -56.7237 1.80324 440.565
2579 1 -58.4177 1.77829 442.465 -58.4177 1.77829 442.465
2866 1 -60.1116 1.75344 444.365 -60.1116 1.75344 444.365
2578 1 -59.0559 1.07112 440.063 -59.0559 1.07112 440.063
2595 1 -48.881 1.79865 441.124 -48.881 1.79865 441.124
2592 1 -50.5749 1.77376 443.024 -50.5749 1.77376 443.024
2880 1 -52.2686 1.74892 444.923 -52.2686 1.74892 444.923
2877 1 -53.962 1.72416 446.823 -53.962 1.72416 446.823
2873 1 -55.6553 1.69954 448.723 -55.6553 1.69954 448.723
2609 1 -41.0397 1.79411 441.684 -41.0397 1.79411 441.684
2606 1 -42.7337 1.76925 443.583 -42.7337 1.76925 443.583
2892 1 -44.4274 1.74441 445.483 -44.4274 1.74441 445.483
2890 1 -46.1208 1.71961 447.383 -46.1208 1.71961 447.383
3174 1 -47.8138 1.69489 449.283 -47.8138 1.69489 449.283
2618 1 -36.3775 3.25869 442.691 -36.3775 3.25869 442.691
2585 1 -54.3916 2.53544 441.068 -54.3916 2.53544 441.068
2583 1 -56.0855 2.5105 442.968 -56.0855 2.5105 442.968
2870 1 -57.7793 2.48564 444.867 -57.7793 2.48564 444.867
2867 1 -59.4729 2.46089 446.767 -59.4729 2.46089 446.767
2863 1 -61.1664 2.43629 448.666 -61.1664 2.43629 448.666
2599 1 -46.5494 2.5309 441.627 -46.5494 2.5309 441.627
2596 1 -48.2434 2.50602 443.527 -48.2434 2.50602 443.527
2883 1 -49.937 2.4812 445.426 -49.937 2.4812 445.426
2881 1 -51.6303 2.45646 447.326 -51.6303 2.45646 447.326
3164 1 -53.3234 2.43186 449.226 -53.3234 2.43186 449.226
2610 1 -40.4026 2.50153 444.087 -40.4026 2.50153 444.087
2896 1 -42.0963 2.47668 445.986 -42.0963 2.47668 445.986
2893 1 -43.7896 2.45188 447.886 -43.7896 2.45188 447.886
3178 1 -45.4825 2.42715 449.786 -45.4825 2.42715 449.786
2575 1 -60.7501 1.04619 441.962 -60.7501 1.04619 441.962
2591 1 -51.2127 1.06642 440.621 -51.2127 1.06642 440.621
2588 1 -52.9067 1.04149 442.521 -52.9067 1.04149 442.521
2876 1 -54.6004 1.01662 444.42 -54.6004 1.01662 444.42
2872 1 -56.294 0.991831 446.32 -56.294 0.991831 446.32
2869 1 -57.9873 0.967166 448.22 -57.9873 0.967166 448.22
2605 1 -43.3709 1.06185 441.18 -43.3709 1.06185 441.18
2602 1 -45.065 1.03699 443.08 -45.065 1.03699 443.08
2889 1 -46.7587 1.01214 444.98 -46.7587 1.01214 444.98
2886 1 -48.4521 0.987346 446.88 -48.4521 0.987346 446.88
3170 1 -50.1453 0.962654 448.779 -50.1453 0.962654 448.779
2899 1 -40.612 0.982816 447.44 -40.612 0.982816 447.44
3184 1 -42.3051 0.958042 449.339 -42.3051 0.958042 449.339
2580 1 -57.5707 4.00448 441.515 -57.5707 4.00448 441.515
2577 1 -59.2647 3.97958 443.415 -59.2647 3.97958 443.415
2864 1 -60.9585 3.95478 445.314 -60.9585 3.95478 445.314
2862 1 -61.8054 1.72871 446.264 -61.8054 1.72871 446.264
2594 1 -49.728 3.99993 442.074 -49.728 3.99993 442.074
2590 1 -51.4218 3.97506 443.974 -51.4218 3.97506 443.974
2878 1 -53.1153 3.95025 445.873 -53.1153 3.95025 445.873
2875 1 -54.8087 3.92556 447.773 -54.8087 3.92556 447.773
3159 1 -56.5018 3.90101 449.673 -56.5018 3.90101 449.673
2611 1 -40.1925 4.02026 440.734 -40.1925 4.02026 440.734
2608 1 -41.8867 3.99541 442.634 -41.8867 3.99541 442.634
2894 1 -43.5806 3.97055 444.533 -43.5806 3.97055 444.533
2891 1 -45.2741 3.94572 446.433 -45.2741 3.94572 446.433
2888 1 -46.9673 3.92096 448.333 -46.9673 3.92096 448.333
2904 1 -37.4345 3.94123 446.993 -37.4345 3.94123 446.993
2621 1 -34.6828 3.2835 440.792 -34.6828 3.2835 440.792
2617 1 -37.0139 2.5512 440.288 -37.0139 2.5512 440.288
2614 1 -38.7085 2.52639 442.187 -38.7085 2.52639 442.187
2908 1 -35.1038 0.246067 447.497 -35.1038 0.246067 447.497
2619 1 -35.5302 1.05738 441.741 -35.5302 1.05738 441.741
2906 1 -35.9505 2.44733 448.447 -35.9505 2.44733 448.447
2905 1 -36.5877 1.73995 446.044 -36.5877 1.73995 446.044
2620 1 -34.8938 1.76486 444.144 -34.8938 1.76486 444.144
3190 1 -39.1277 3.91639 448.893 -39.1277 3.91639 448.893
2902 1 -38.2811 1.71507 447.943 -38.2811 1.71507 447.943
2903 1 -38.0716 3.23382 444.59 -38.0716 3.23382 444.59
2615 1 -37.8613 0.325079 441.238 -37.8613 0.325079 441.238
2909 1 -34.257 2.47227 446.547 -34.257 2.47227 446.547
14 1 -53.3807 0.134681 399.522 -53.3807 4.56213 399.522
7 1 -57.9471 3.07456 398.624 -57.9471 3.07456 398.624
25 1 -45.5049 0.131502 399.998 -45.5049 4.55895 399.998
38 1 -37.6253 0.076467 400.509 -37.6253 4.50392 400.509
23 1 -47.1999 0.0894843 401.887 -47.1999 4.51694 401.887
287 1 -50.5867 0.0333578 405.658 -50.5867 4.46081 405.658
878 1 -41.6752 4.35409 414.371 -41.6752 4.35409 414.371
579 1 -47.8281 4.38668 411.912 -47.8281 4.38668 411.912
585 1 -44.4326 4.4339 408.117 -44.4326 4.4339 408.117
290 1 -48.8943 0.0593184 403.763 -48.8943 4.48677 403.763
11 1 -55.042 0.0764485 401.342 -55.042 4.5039 401.342
595 1 -38.2794 4.40093 410.576 -38.2794 4.40093 410.576
1134 1 -60.7644 4.32101 417.048 -60.7644 4.32101 417.048
283 1 -52.284 4.43906 407.554 -52.284 4.43906 407.554
582 1 -46.1303 4.41019 410.015 -46.1303 4.41019 410.015
276 1 -56.7489 0.0711357 403.209 -56.7489 4.49859 403.209
569 1 -53.9813 4.41764 409.451 -53.9813 4.41764 409.451
847 1 -59.0685 4.34539 415.149 -59.0685 4.34539 415.149
556 1 -61.8275 4.42646 408.894 -61.8275 4.42646 408.894
272 1 -58.443 0.052075 405.092 -58.443 4.47953 405.092
3 1 -59.7665 3.0796 400.318 -59.7665 3.0796 400.318
35 1 -39.3324 0.0744628 402.413 -39.3324 4.50192 402.413
598 1 -36.5811 4.42417 408.679 -36.5811 4.42417 408.679
850 1 -57.3725 4.36967 413.249 -57.3725 4.36967 413.249