ITEM: TIMESTEP
0
ITEM: NUMBER OF ATOMS
4630
ITEM: BOX BOUNDS xy xz yz pp pp pp
-6.2940988501800000e+01 1.0596002034999999e+02 0.0000000000000000e+00
0.0000000000000000e+00 4.4274527100805940e+00 0.0000000000000000e+00
3.8000000000000000e+02 5.0000000000000000e+02 0.0000000000000000e+00
ITEM: ATOMS id type x y z xu yu zu
27 1 -45.3184 2.20223 399.409 -45.3184 2.20223 399.409
36 1 -39.7372 1.46001 399.466 -39.7372 1.46001 399.466
31 1 -42.9314 2.89432 399.848 -42.9314 2.89432 399.848
22 1 -48.5009 3.64589 399.818 -48.5009 3.64589 399.818
20 1 -49.3673 1.42484 400.67 -49.3673 1.42484 400.67
40 1 -37.3525 2.15365 399.908 -37.3525 2.15365 399.908
34 1 -40.5815 3.65859 400.306 -40.5815 3.65859 400.306
17 1 -51.7214 0.672828 400.219 -51.7214 0.672828 400.219
9 1 -57.2646 1.36134 400.132 -57.2646 1.36134 400.132
43 1 -35.0039 2.91869 400.368 -35.0039 2.91869 400.368
12 1 -54.9436 2.1772 400.619 -54.9436 2.1772 400.619
5 1 -59.6432 0.694883 399.671 -59.6432 0.694883 399.671
29 1 -43.7886 0.665717 400.707 -43.7886 0.665717 400.707
853 1 -56.6891 2.78256 414.85 -56.6891 2.78256 414.85
873 1 -45.5415 1.30629 414.972 -45.5415 1.30629 414.972
865 1 -49.6183 0.557457 416.354 -49.6183 0.557457 416.354
1174 1 -36.9713 2.01852 417.921 -36.9713 2.01852 417.921
883 1 -39.9666 0.566859 415.034 -39.9666 0.566859 415.034
863 1 -51.1166 2.04537 414.911 -51.1166 2.04537 414.911
315 1 -35.2262 1.39653 403.67 -35.2262 1.39653 403.67
307 1 -40.1625 2.85539 405.995 -40.1625 2.85539 405.995
1150 1 -51.3364 0.541394 418.239 -51.3364 0.541394 418.239
855 1 -55.1912 1.29493 416.294 -55.1912 1.29493 416.294
310 1 -38.4428 2.87149 404.115 -38.4428 2.87149 404.115
871 1 -46.4012 3.5124 415.914 -46.4012 3.5124 415.914
16 1 -52.5756 2.87152 401.079 -52.5756 2.87152 401.079
309 1 -38.6635 1.36736 407.436 -38.6635 1.36736 407.436
1156 1 -48.1201 3.49689 417.798 -48.1201 3.49689 417.798
867 1 -48.759 2.77901 415.412 -48.759 2.77901 415.412
1159 1 -45.7627 4.23039 418.3 -45.7627 4.23039 418.3
1168 1 -40.1883 3.49117 418.361 -40.1883 3.49117 418.361
1170 1 -39.3286 1.28506 417.419 -39.3286 1.28506 417.419
594 1 -39.5233 3.57349 408.379 -39.5233 3.57349 408.379
37 1 -39.08 2.152 401.752 -39.08 2.152 401.752
851 1 -57.5477 0.560582 415.792 -57.5477 0.560582 415.792
857 1 -54.3325 3.51691 415.351 -54.3325 3.51691 415.351
592 1 -40.3829 1.35213 409.321 -40.3829 1.35213 409.321
849 1 -58.4064 2.76608 416.735 -58.4064 2.76608 416.735
877 1 -43.1838 2.0396 415.474 -43.1838 2.0396 415.474
1143 1 -56.0499 3.50041 417.236 -56.0499 3.50041 417.236
1140 1 -57.7673 3.48393 419.122 -57.7673 3.48393 419.122
845 1 -60.7629 2.03186 416.234 -60.7629 2.03186 416.234
875 1 -44.0435 4.24573 416.416 -44.0435 4.24573 416.416
886 1 -38.2471 0.58212 413.15 -38.2471 0.58212 413.15
891 1 -35.03 3.53686 412.71 -35.03 3.53686 412.71
39 1 -37.5874 0.659594 403.162 -37.5874 0.659594 403.162
1177 1 -35.4737 0.530678 419.365 -35.4737 0.530678 419.365
1167 1 -41.0479 1.26981 419.303 -41.0479 1.26981 419.303
8 1 -58.1376 3.61826 401.094 -58.1376 3.61826 401.094
869 1 -47.2607 1.29098 416.856 -47.2607 1.29098 416.856
1136 1 -60.1239 2.74968 418.621 -60.1239 2.74968 418.621
1162 1 -44.2647 2.74238 419.743 -44.2647 2.74238 419.743
15 1 -53.4404 0.668501 402.067 -53.4404 0.668501 402.067
280 1 -55.1623 0.652101 403.931 -55.1623 0.652101 403.931
277 1 -56.8913 0.64809 405.806 -56.8913 0.64809 405.806
273 1 -58.6088 0.631727 407.688 -58.6088 0.631727 407.688
560 1 -60.3241 0.613438 409.575 -60.3241 0.613438 409.575
557 1 -62.041 0.59642 411.461 -62.041 0.59642 411.461
26 1 -45.5121 0.671692 402.599 -45.5121 0.671692 402.599
294 1 -47.235 0.658389 404.492 -47.235 0.658389 404.492
291 1 -48.9546 0.638979 406.374 -48.9546 0.638979 406.374
576 1 -50.6739 0.622392 408.257 -50.6739 0.622392 408.257
573 1 -52.3944 0.608335 410.139 -52.3944 0.608335 410.139
570 1 -54.1131 0.593339 412.022 -54.1131 0.593339 412.022
854 1 -55.8305 0.577085 413.907 -55.8305 0.577085 413.907
305 1 -41.0211 0.634331 406.936 -41.0211 0.634331 406.936
589 1 -42.7406 0.61889 408.82 -42.7406 0.61889 408.82
586 1 -44.4601 0.603406 410.704 -44.4601 0.603406 410.704
872 1 -46.1798 0.588131 412.587 -46.1798 0.588131 412.587
599 1 -36.5276 0.597409 411.266 -36.5276 0.597409 411.266
1132 1 -62.4804 2.01554 418.12 -62.4804 2.01554 418.12
4 1 -59.8992 3.63773 402.902 -59.8992 3.63773 402.902
268 1 -61.6034 3.60681 404.795 -61.6034 3.60681 404.795
1152 1 -50.4774 2.7632 417.297 -50.4774 2.7632 417.297
19 1 -50.2375 3.61437 401.605 -50.2375 3.61437 401.605
286 1 -51.9475 3.6014 403.474 -51.9475 3.6014 403.474
282 1 -53.6657 3.59221 405.366 -53.6657 3.59221 405.366
279 1 -55.3907 3.58371 407.248 -55.3907 3.58371 407.248
565 1 -57.1096 3.5697 409.132 -57.1096 3.5697 409.132
563 1 -58.8261 3.5528 411.018 -58.8261 3.5528 411.018
846 1 -60.5432 3.53606 412.905 -60.5432 3.53606 412.905
32 1 -42.2967 3.62252 402.182 -42.2967 3.62252 402.182
300 1 -44.0184 3.61136 404.056 -44.0184 3.61136 404.056
297 1 -45.7381 3.59567 405.935 -45.7381 3.59567 405.935
293 1 -47.4566 3.57952 407.818 -47.4566 3.57952 407.818
578 1 -49.1761 3.56355 409.701 -49.1761 3.56355 409.701
575 1 -50.8961 3.54859 411.583 -50.8961 3.54859 411.583
860 1 -52.6149 3.53316 413.466 -52.6149 3.53316 413.466
591 1 -41.2427 3.55811 410.263 -41.2427 3.55811 410.263
588 1 -42.9622 3.54279 412.147 -42.9622 3.54279 412.147
874 1 -44.6818 3.52759 414.031 -44.6818 3.52759 414.031
10 1 -56.656 2.12785 402.495 -56.656 2.12785 402.495
274 1 -58.395 2.14059 404.355 -58.395 2.14059 404.355
271 1 -60.1073 2.12041 406.242 -60.1073 2.12041 406.242
558 1 -61.8215 2.10092 408.13 -61.8215 2.10092 408.13
24 1 -47.0303 2.1557 401.191 -47.0303 2.1557 401.191
21 1 -48.7405 2.14343 403.047 -48.7405 2.14343 403.047
288 1 -50.4515 2.12449 404.932 -50.4515 2.12449 404.932
285 1 -52.1707 2.10808 406.815 -52.1707 2.10808 406.815
571 1 -53.8926 2.09567 408.694 -53.8926 2.09567 408.694
568 1 -55.6114 2.08124 410.577 -55.6114 2.08124 410.577
852 1 -57.3284 2.06484 412.463 -57.3284 2.06484 412.463
848 1 -59.0455 2.04827 414.349 -59.0455 2.04827 414.349
306 1 -40.8023 2.13638 403.609 -40.8023 2.13638 403.609
302 1 -42.5202 2.12179 405.491 -42.5202 2.12179 405.491
299 1 -44.2389 2.10702 407.376 -44.2389 2.10702 407.376
583 1 -45.9582 2.09149 409.261 -45.9582 2.09149 409.261
581 1 -47.6779 2.07599 411.144 -47.6779 2.07599 411.144
866 1 -49.3977 2.06089 413.027 -49.3977 2.06089 413.027
880 1 -41.4643 2.05482 413.59 -41.4643 2.05482 413.59
312 1 -36.9447 1.38222 405.551 -36.9447 1.38222 405.551
2 1 -61.4108 0.707709 401.466 -61.4108 0.707709 401.466
13 1 -54.294 2.87087 402.976 -54.294 2.87087 402.976
278 1 -56.0257 2.86374 404.863 -56.0257 2.86374 404.863
275 1 -57.7505 2.85441 406.743 -57.7505 2.85441 406.743
562 1 -59.4659 2.83612 408.631 -59.4659 2.83612 408.631
559 1 -61.1823 2.81852 410.518 -61.1823 2.81852 410.518
1166 1 -41.9074 3.47586 420.245 -41.9074 3.47586 420.245
889 1 -35.8897 1.31553 413.652 -35.8897 1.31553 413.652
28 1 -44.6563 2.8925 401.694 -44.6563 2.8925 401.694
296 1 -46.3789 2.87799 403.551 -46.3789 2.87799 403.551
292 1 -48.0958 2.86242 405.433 -48.0958 2.86242 405.433
289 1 -49.8137 2.84443 407.317 -49.8137 2.84443 407.317
574 1 -51.5341 2.82923 409.199 -51.5341 2.82923 409.199
572 1 -53.254 2.81485 411.08 -53.254 2.81485 411.08
856 1 -54.9719 2.79904 412.964 -54.9719 2.79904 412.964
303 1 -41.8814 2.84005 407.877 -41.8814 2.84005 407.877
587 1 -43.6005 2.82479 409.762 -43.6005 2.82479 409.762
584 1 -45.3199 2.80944 411.646 -45.3199 2.80944 411.646
870 1 -47.0397 2.79428 413.529 -47.0397 2.79428 413.529
6 1 -59.0279 1.42426 401.971 -59.0279 1.42426 401.971
270 1 -60.7497 1.40715 403.845 -60.7497 1.40715 403.845
267 1 -62.4595 1.38302 405.741 -62.4595 1.38302 405.741
890 1 -35.2518 2.03373 416.037 -35.2518 2.03373 416.037
18 1 -51.084 1.39636 402.552 -51.084 1.39636 402.552
284 1 -52.8039 1.38562 404.432 -52.8039 1.38562 404.432
281 1 -54.5291 1.37493 406.31 -54.5291 1.37493 406.31
567 1 -56.2512 1.36396 408.19 -56.2512 1.36396 408.19
564 1 -57.968 1.34761 410.075 -57.968 1.34761 410.075
561 1 -59.6847 1.33066 411.962 -59.6847 1.33066 411.962
844 1 -61.4019 1.3141 413.848 -61.4019 1.3141 413.848
33 1 -41.455 1.41497 401.244 -41.455 1.41497 401.244
30 1 -43.1636 1.3994 403.102 -43.1636 1.3994 403.102
298 1 -44.8784 1.3894 404.99 -44.8784 1.3894 404.99
295 1 -46.597 1.37408 406.876 -46.597 1.37408 406.876
580 1 -48.3162 1.35751 408.76 -48.3162 1.35751 408.76
577 1 -50.0362 1.34221 410.642 -50.0362 1.34221 410.642
862 1 -51.7557 1.32724 412.525 -51.7557 1.32724 412.525
590 1 -42.1024 1.33676 411.205 -42.1024 1.33676 411.205
876 1 -43.8219 1.32146 413.089 -43.8219 1.32146 413.089
1163 1 -43.4052 0.536365 418.801 -43.4052 0.536365 418.801
1153 1 -49.8383 3.48094 419.683 -49.8383 3.48094 419.683
311 1 -37.8033 3.58917 406.496 -37.8033 3.58917 406.496
42 1 -35.8777 0.674846 401.305 -35.8777 0.674846 401.305
1135 1 -60.9826 0.527766 419.564 -60.9826 0.527766 419.564
1171 1 -38.6906 2.00328 419.805 -38.6906 2.00328 419.805
1139 1 -58.6261 1.26199 420.064 -58.6261 1.26199 420.064
601 1 -35.6679 2.81873 410.324 -35.6679 2.81873 410.324
313 1 -36.0816 3.60516 404.611 -36.0816 3.60516 404.611
858 1 -53.4738 1.31136 414.409 -53.4738 1.31136 414.409
868 1 -47.8994 0.572983 414.471 -47.8994 0.572983 414.471
1147 1 -53.6933 4.23472 417.737 -53.6933 4.23472 417.737
843 1 -62.2606 3.51964 414.791 -62.2606 3.51964 414.791
593 1 -39.7448 2.0701 411.706 -39.7448 2.0701 411.706
308 1 -39.3022 0.649325 405.049 -39.3022 0.649325 405.049
861 1 -51.9756 4.25108 415.853 -51.9756 4.25108 415.853
1158 1 -46.622 2.00887 419.242 -46.622 2.00887 419.242
884 1 -39.1068 2.78821 414.092 -39.1068 2.78821 414.092
881 1 -40.8263 2.77297 415.976 -40.8263 2.77297 415.976
885 1 -38.4689 3.5064 416.477 -38.4689 3.5064 416.477
859 1 -52.8345 2.02921 416.795 -52.8345 2.02921 416.795
596 1 -38.0255 2.08537 409.822 -38.0255 2.08537 409.822
879 1 -41.686 0.551638 416.917 -41.686 0.551638 416.917
1172 1 -37.831 4.22463 418.863 -37.831 4.22463 418.863
1154 1 -48.9793 1.27524 418.74 -48.9793 1.27524 418.74
887 1 -37.6092 1.30029 415.535 -37.6092 1.30029 415.535
597 1 -37.3874 2.80347 412.208 -37.3874 2.80347 412.208
1161 1 -44.9032 2.02437 417.358 -44.9032 2.02437 417.358
1138 1 -59.2651 0.544142 417.678 -59.2651 0.544142 417.678
1149 1 -52.1953 2.74696 419.181 -52.1953 2.74696 419.181
41 1 -36.7202 2.88235 402.242 -36.7202 2.88235 402.242
888 1 -36.7494 3.52163 414.593 -36.7494 3.52163 414.593
1165 1 -42.5457 2.75775 417.859 -42.5457 2.75775 417.859
1141 1 -56.9086 1.27844 418.179 -56.9086 1.27844 418.179
1145 1 -54.552 2.01276 418.68 -54.552 2.01276 418.68
600 1 -36.3062 2.10056 407.938 -36.3062 2.10056 407.938
1148 1 -53.0541 0.525034 420.124 -53.0541 0.525034 420.124
882 1 -40.6046 4.27617 412.648 -40.6046 4.27617 412.648
1157 1 -47.4812 4.2147 420.184 -47.4812 4.2147 420.184
1144 1 -55.4108 4.21824 419.623 -55.4108 4.21824 419.623
602 1 -34.808 0.612684 409.382 -34.808 0.612684 409.382
1131 1 -62.7001 0.511421 421.449 -62.7001 0.511421 421.449
1755 1 -35.279 2.67025 428.406 -35.279 2.67025 428.406
1460 1 -39.7715 2.70609 424.074 -39.7715 2.70609 424.074
2308 1 -49.4388 3.32763 437.771 -49.4388 3.32763 437.771
2316 1 -44.507 1.87254 435.444 -44.507 1.87254 435.444
2312 1 -47.0826 4.06185 438.272 -47.0826 4.06185 438.272
1464 1 -37.4145 3.43974 424.576 -37.4145 3.43974 424.576
1461 1 -38.9121 0.5001 423.132 -38.9121 0.5001 423.132
2039 1 -38.0771 3.35686 434.561 -38.0771 3.35686 434.561
2613 1 -40.0145 1.83695 439.775 -40.0145 1.83695 439.775
1467 1 -35.0576 4.1734 425.078 -35.0576 4.1734 425.078
2603 1 -45.585 2.57417 439.715 -45.585 2.57417 439.715
1443 1 -49.1993 4.19867 422.069 -49.1993 4.19867 422.069
1748 1 -39.1332 3.42422 426.46 -39.1332 3.42422 426.46
2023 1 -46.8633 1.1384 434.942 -46.8633 1.1384 434.942
2310 1 -47.9411 1.83996 439.214 -47.9411 1.83996 439.214
1151 1 -50.6973 1.25911 420.625 -50.6973 1.25911 420.625
2303 1 -52.6534 0.371467 438.212 -52.6534 0.371467 438.212
2299 1 -55.0097 4.06463 437.712 -55.0097 4.06463 437.712
2033 1 -41.2921 0.401026 435.002 -41.2921 0.401026 435.002
1433 1 -54.7716 0.508582 422.009 -54.7716 0.508582 422.009
1430 1 -56.4891 0.492112 423.894 -56.4891 0.492112 423.894
1426 1 -58.2065 0.47564 425.78 -58.2065 0.47564 425.78
1713 1 -59.9238 0.45917 427.665 -59.9238 0.45917 427.665
1710 1 -61.641 0.442704 429.551 -61.641 0.442704 429.551
2330 1 -35.9413 2.58729 438.392 -35.9413 2.58729 438.392
1160 1 -45.1241 0.520864 420.685 -45.1241 0.520864 420.685
1447 1 -46.8424 0.505046 422.57 -46.8424 0.505046 422.57
1444 1 -48.5604 0.48896 424.455 -48.5604 0.48896 424.455
1730 1 -50.2781 0.472703 426.34 -50.2781 0.472703 426.34
1727 1 -51.9956 0.456343 428.225 -51.9956 0.456343 428.225
1724 1 -53.7129 0.439923 430.11 -53.7129 0.439923 430.11
2008 1 -55.4301 0.423467 431.996 -55.4301 0.423467 431.996
2006 1 -57.1471 0.406995 433.882 -57.1471 0.406995 433.882
1458 1 -40.6308 0.48458 425.017 -40.6308 0.48458 425.017
1743 1 -42.3492 0.468839 426.901 -42.3492 0.468839 426.901
1740 1 -44.0672 0.45289 428.786 -44.0672 0.45289 428.786
2026 1 -45.7849 0.436773 430.671 -45.7849 0.436773 430.671
2022 1 -47.5023 0.420537 432.556 -47.5023 0.420537 432.556
2019 1 -49.2195 0.40422 434.441 -49.2195 0.40422 434.441
2309 1 -48.5803 1.12208 436.828 -48.5803 1.12208 436.828
1137 1 -59.4848 3.4675 421.007 -59.4848 3.4675 421.007
1421 1 -61.2022 3.4511 422.893 -61.2022 3.4511 422.893
1439 1 -51.5562 3.46468 421.567 -51.5562 3.46468 421.567
1435 1 -53.2738 3.44829 423.453 -53.2738 3.44829 423.453
1432 1 -54.9912 3.43184 425.338 -54.9912 3.43184 425.338
1719 1 -56.7086 3.41537 427.223 -56.7086 3.41537 427.223
1716 1 -58.4259 3.39889 429.109 -58.4259 3.39889 429.109
2001 1 -60.143 3.38241 430.994 -60.143 3.38241 430.994
1998 1 -61.8601 3.36594 432.88 -61.8601 3.36594 432.88
2323 1 -39.7947 3.34079 436.446 -39.7947 3.34079 436.446
1453 1 -43.6262 3.46036 422.129 -43.6262 3.46036 422.129
1450 1 -45.3446 3.44457 424.014 -45.3446 3.44457 424.014
1446 1 -47.0626 3.42855 425.898 -47.0626 3.42855 425.898
1732 1 -48.7803 3.41235 427.783 -48.7803 3.41235 427.783
1729 1 -50.4978 3.39604 429.669 -50.4978 3.39604 429.669
2014 1 -52.2151 3.37965 431.554 -52.2151 3.37965 431.554
2011 1 -53.9322 3.36322 433.44 -53.9322 3.36322 433.44
1745 1 -40.8516 3.40849 428.345 -40.8516 3.40849 428.345
1742 1 -42.5695 3.39256 430.23 -42.5695 3.39256 430.23
2028 1 -44.2872 3.37647 432.115 -44.2872 3.37647 432.115
2025 1 -46.0046 3.36026 434 -46.0046 3.36026 434
1427 1 -57.987 1.97981 422.451 -57.987 1.97981 422.451
1424 1 -59.7043 1.96336 424.336 -59.7043 1.96336 424.336
1711 1 -61.4217 1.94692 426.222 -61.4217 1.94692 426.222
2322 1 -40.6533 1.11899 437.389 -40.6533 1.11899 437.389
1750 1 -37.6357 1.93645 427.904 -37.6357 1.93645 427.904
1155 1 -48.3403 1.99299 421.126 -48.3403 1.99299 421.126
1441 1 -50.0583 1.97683 423.011 -50.0583 1.97683 423.011
1438 1 -51.7759 1.96051 424.896 -51.7759 1.96051 424.896
1725 1 -53.4934 1.9441 426.782 -53.4934 1.9441 426.782
1722 1 -55.2107 1.92765 428.667 -55.2107 1.92765 428.667
1718 1 -56.928 1.91118 430.552 -56.928 1.91118 430.552
2003 1 -58.6451 1.89469 432.438 -58.6451 1.89469 432.438
2000 1 -60.3621 1.87821 434.324 -60.3621 1.87821 434.324
1459 1 -40.4097 1.98796 421.689 -40.4097 1.98796 421.689
1455 1 -42.1285 1.97244 423.573 -42.1285 1.97244 423.573
1452 1 -43.8468 1.95669 425.457 -43.8468 1.95669 425.457
1737 1 -45.5648 1.9407 427.342 -45.5648 1.9407 427.342
1735 1 -47.2825 1.92455 429.227 -47.2825 1.92455 429.227
2020 1 -49 1.90828 431.112 -49 1.90828 431.112
2017 1 -50.7173 1.89193 432.998 -50.7173 1.89193 432.998
2034 1 -41.072 1.90481 431.673 -41.072 1.90481 431.673
2031 1 -42.7897 1.88874 433.558 -42.7897 1.88874 433.558
2029 1 -43.6484 4.09438 434.501 -43.6484 4.09438 434.501
1146 1 -53.9129 2.73054 421.066 -53.9129 2.73054 421.066
1431 1 -55.6304 2.71407 422.952 -55.6304 2.71407 422.952
1428 1 -57.3478 2.6976 424.837 -57.3478 2.6976 424.837
1715 1 -59.0651 2.68113 426.723 -59.0651 2.68113 426.723
1712 1 -60.7824 2.66466 428.608 -60.7824 2.66466 428.608
1708 1 -62.4996 2.6482 430.494 -62.4996 2.6482 430.494
1747 1 -39.354 1.92072 429.789 -39.354 1.92072 429.789
1449 1 -45.9833 2.72672 421.628 -45.9833 2.72672 421.628
1445 1 -47.7014 2.71076 423.512 -47.7014 2.71076 423.512
1442 1 -49.4193 2.69457 425.397 -49.4193 2.69457 425.397
1728 1 -51.1368 2.67826 427.282 -51.1368 2.67826 427.282
1726 1 -52.8543 2.66187 429.168 -52.8543 2.66187 429.168
2010 1 -54.5715 2.64542 431.053 -54.5715 2.64542 431.053
2007 1 -56.2886 2.62896 432.939 -56.2886 2.62896 432.939
1456 1 -41.49 2.69046 425.959 -41.49 2.69046 425.959
1741 1 -43.2082 2.67461 427.843 -43.2082 2.67461 427.843
1738 1 -44.926 2.65858 429.728 -44.926 2.65858 429.728
2024 1 -46.6436 2.64239 431.613 -46.6436 2.64239 431.613
2021 1 -48.3609 2.62611 433.499 -48.3609 2.62611 433.499
2035 1 -40.4334 2.6228 434.06 -40.4334 2.6228 434.06
1754 1 -35.9171 1.95198 426.02 -35.9171 1.95198 426.02
1423 1 -60.3435 1.24557 421.95 -60.3435 1.24557 421.95
1420 1 -62.0609 1.22917 423.836 -62.0609 1.22917 423.836
2044 1 -34.8619 1.88514 434.121 -34.8619 1.88514 434.121
1437 1 -52.415 1.24277 422.51 -52.415 1.24277 422.51
1434 1 -54.1325 1.22635 424.395 -54.1325 1.22635 424.395
1721 1 -55.8499 1.20988 426.281 -55.8499 1.20988 426.281
1717 1 -57.5673 1.19341 428.166 -57.5673 1.19341 428.166
1714 1 -59.2845 1.17693 430.052 -59.2845 1.17693 430.052
1999 1 -61.0016 1.16045 431.937 -61.0016 1.16045 431.937
1997 1 -62.7186 1.14398 433.823 -62.7186 1.14398 433.823
1164 1 -42.7669 1.25442 421.187 -42.7669 1.25442 421.187
1451 1 -44.4854 1.23877 423.071 -44.4854 1.23877 423.071
1448 1 -46.2036 1.22286 424.956 -46.2036 1.22286 424.956
1734 1 -47.9215 1.20674 426.841 -47.9215 1.20674 426.841
1731 1 -49.6391 1.19048 428.726 -49.6391 1.19048 428.726
2016 1 -51.3564 1.17412 430.611 -51.3564 1.17412 430.611
2012 1 -53.0737 1.15771 432.497 -53.0737 1.15771 432.497
2009 1 -54.7907 1.14127 434.382 -54.7907 1.14127 434.382
1746 1 -39.9924 1.20265 427.403 -39.9924 1.20265 427.403
1744 1 -41.7106 1.18682 429.287 -41.7106 1.18682 429.287
2030 1 -43.4284 1.1708 431.172 -43.4284 1.1708 431.172
2027 1 -45.146 1.15465 433.057 -45.146 1.15465 433.057
2325 1 -38.9359 1.13512 435.504 -38.9359 1.13512 435.504
1749 1 -38.4949 4.14234 428.846 -38.4949 4.14234 428.846
1425 1 -58.8457 4.18531 423.394 -58.8457 4.18531 423.394
1736 1 -46.4237 4.14637 428.285 -46.4237 4.14637 428.285
1142 1 -56.2695 1.99628 420.565 -56.2695 1.99628 420.565
1720 1 -56.0694 4.13314 429.61 -56.0694 4.13314 429.61
2005 1 -57.7865 4.11666 431.495 -57.7865 4.11666 431.495
2002 1 -59.5036 4.10018 433.381 -59.5036 4.10018 433.381
1169 1 -39.5502 4.20937 420.747 -39.5502 4.20937 420.747
1723 1 -54.3521 4.14961 427.724 -54.3521 4.14961 427.724
1440 1 -50.9171 4.18241 423.954 -50.9171 4.18241 423.954
1733 1 -48.1413 4.13015 430.17 -48.1413 4.13015 430.17
2018 1 -49.8587 4.11384 432.055 -49.8587 4.11384 432.055
2015 1 -51.5759 4.09746 433.94 -51.5759 4.09746 433.94
2036 1 -40.2131 4.12651 430.731 -40.2131 4.12651 430.731
2032 1 -41.9309 4.11052 432.616 -41.9309 4.11052 432.616
2326 1 -38.2973 1.85313 437.89 -38.2973 1.85313 437.89
1752 1 -36.7764 4.15796 426.962 -36.7764 4.15796 426.962
1457 1 -41.2691 4.19396 422.631 -41.2691 4.19396 422.631
2043 1 -35.5002 1.16694 431.734 -35.5002 1.16694 431.734
2286 1 -62.079 1.86175 436.209 -62.079 1.86175 436.209
2319 1 -42.3705 1.10277 439.274 -42.3705 1.10277 439.274
1436 1 -52.6347 4.16604 425.839 -52.6347 4.16604 425.839
1422 1 -60.563 4.16886 425.279 -60.563 4.16886 425.279
1173 1 -37.193 0.515441 421.249 -37.193 0.515441 421.249
2293 1 -58.2245 1.10837 438.153 -58.2245 1.10837 438.153
2289 1 -60.5809 0.374065 437.653 -60.5809 0.374065 437.653
2295 1 -56.7265 4.04821 439.597 -56.7265 4.04821 439.597
1465 1 -36.5551 1.23371 423.634 -36.5551 1.23371 423.634
2315 1 -44.7265 0.368588 438.773 -44.7265 0.368588 438.773
2331 1 -35.7209 4.09092 435.063 -35.7209 4.09092 435.063
2297 1 -55.8681 1.84269 438.654 -55.8681 1.84269 438.654
2324 1 -39.1559 4.05878 438.833 -39.1559 4.05878 438.833
2306 1 -50.2972 1.10573 438.713 -50.2972 1.10573 438.713
2285 1 -62.2977 0.357638 439.538 -62.2977 0.357638 439.538
1462 1 -38.2739 1.21828 425.518 -38.2739 1.21828 425.518
1751 1 -36.9975 2.65462 430.29 -36.9975 2.65462 430.29
2329 1 -36.5798 1.86921 436.005 -36.5798 1.86921 436.005
2042 1 -36.3592 3.37278 432.677 -36.3592 3.37278 432.677
2041 1 -37.2182 1.15111 433.619 -37.2182 1.15111 433.619
2593 1 -51.1556 3.31128 439.656 -51.1556 3.31128 439.656
2328 1 -36.8 0.365499 439.334 -36.8 0.365499 439.334
2301 1 -53.5118 2.577 439.155 -53.5118 2.577 439.155
1466 1 -35.6955 3.45509 422.692 -35.6955 3.45509 422.692
2298 1 -55.6492 3.34677 435.325 -55.6492 3.34677 435.325
2321 1 -41.5119 3.32462 438.331 -41.5119 3.32462 438.331
2313 1 -46.2242 1.85628 437.329 -46.2242 1.85628 437.329
2294 1 -57.3661 3.33032 437.211 -57.3661 3.33032 437.211
2304 1 -51.795 2.59339 437.27 -51.795 2.59339 437.27
2300 1 -54.1513 1.85911 436.769 -54.1513 1.85911 436.769
2290 1 -59.7225 2.59602 436.71 -59.7225 2.59602 436.71
2318 1 -43.0095 0.384845 436.887 -43.0095 0.384845 436.887
2327 1 -37.4386 4.07492 436.948 -37.4386 4.07492 436.948
2004 1 -58.0056 2.61248 434.824 -58.0056 2.61248 434.824
2013 1 -52.4344 1.87553 434.883 -52.4344 1.87553 434.883
2288 1 -61.2206 4.0837 435.266 -61.2206 4.0837 435.266
2037 1 -39.5745 0.417091 433.117 -39.5745 0.417091 433.117
1739 1 -44.7059 4.16245 426.4 -44.7059 4.16245 426.4
1753 1 -36.1383 0.448731 429.348 -36.1383 0.448731 429.348
2307 1 -50.0781 2.60977 435.384 -50.0781 2.60977 435.384
2314 1 -45.3656 4.07814 436.386 -45.3656 4.07814 436.386
2040 1 -37.8566 0.433002 431.233 -37.8566 0.433002 431.233
2320 1 -42.1508 2.60667 435.945 -42.1508 2.60667 435.945
2292 1 -58.8641 0.390522 435.767 -58.8641 0.390522 435.767
2311 1 -47.7218 3.34397 435.885 -47.7218 3.34397 435.885
2302 1 -53.2929 4.08105 435.826 -53.2929 4.08105 435.826
2296 1 -56.5077 1.12482 436.268 -56.5077 1.12482 436.268
1463 1 -38.0526 2.72151 422.19 -38.0526 2.72151 422.19
2287 1 -61.4393 2.57957 438.596 -61.4393 2.57957 438.596
2291 1 -59.0828 3.31388 439.096 -59.0828 3.31388 439.096
2317 1 -43.868 2.59045 437.83 -43.868 2.59045 437.83
2038 1 -38.7156 2.63879 432.175 -38.7156 2.63879 432.175
2305 1 -50.9366 0.387855 436.327 -50.9366 0.387855 436.327
2332 1 -35.0825 0.381595 437.449 -35.0825 0.381595 437.449
1709 1 -62.2803 4.15243 427.165 -62.2803 4.15243 427.165
1468 1 -34.8359 1.24899 421.751 -34.8359 1.24899 421.751
1454 1 -42.9877 4.17832 424.515 -42.9877 4.17832 424.515
1429 1 -57.1282 4.20177 421.508 -57.1282 4.20177 421.508
1133 1 -61.8413 2.73332 420.506 -61.8413 2.73332 420.506
1175 1 -36.3334 2.73679 420.307 -36.3334 2.73679 420.307
2616 1 -37.8781 1.06725 443.606 -37.8781 1.06725 443.606
2901 1 -39.5947 1.05096 445.491 -39.5947 1.05096 445.491
2907 1 -36.3807 4.00707 445.05 -36.3807 4.00707 445.05
3194 1 -37.4578 0.281193 449.322 -37.4578 0.281193 449.322
2587 1 -54.3702 0.355078 440.098 -54.3702 0.355078 440.098
2597 1 -48.7994 4.04552 440.157 -48.7994 4.04552 440.157
2584 1 -56.0868 0.338707 441.984 -56.0868 0.338707 441.984
2581 1 -57.8032 0.322368 443.869 -57.8032 0.322368 443.869
2868 1 -59.5196 0.306073 445.755 -59.5196 0.306073 445.755
2865 1 -61.236 0.289827 447.64 -61.236 0.289827 447.64
2601 1 -46.4434 0.352289 440.658 -46.4434 0.352289 440.658
2598 1 -48.16 0.335978 442.544 -48.16 0.335978 442.544
2885 1 -49.8765 0.319686 444.429 -49.8765 0.319686 444.429
2882 1 -51.5928 0.303441 446.315 -51.5928 0.303441 446.315
2879 1 -53.309 0.287273 448.201 -53.309 0.287273 448.201
2612 1 -40.2339 0.333033 443.104 -40.2339 0.333033 443.104
2898 1 -41.9504 0.31674 444.99 -41.9504 0.31674 444.99
2895 1 -43.6667 0.30045 446.875 -43.6667 0.30045 446.875
3180 1 -45.3829 0.284193 448.761 -45.3829 0.284193 448.761
2576 1 -60.7995 3.29746 440.982 -60.7995 3.29746 440.982
2574 1 -62.5162 3.28109 442.867 -62.5162 3.28109 442.867
2589 1 -52.8722 3.29493 441.542 -52.8722 3.29493 441.542
2586 1 -54.5888 3.2786 443.427 -54.5888 3.2786 443.427
2874 1 -56.3052 3.26232 445.313 -56.3052 3.26232 445.313
2871 1 -58.0215 3.2461 447.199 -58.0215 3.2461 447.199
3155 1 -59.7377 3.22994 449.084 -59.7377 3.22994 449.084
2607 1 -43.2289 3.30836 440.217 -43.2289 3.30836 440.217
2604 1 -44.9457 3.29207 442.102 -44.9457 3.29207 442.102
2600 1 -46.6622 3.27577 443.988 -46.6622 3.27577 443.988
2887 1 -48.3786 3.25949 445.873 -48.3786 3.25949 445.873
2884 1 -50.0948 3.24327 447.759 -50.0948 3.24327 447.759
3168 1 -51.8109 3.22712 449.645 -51.8109 3.22712 449.645
2900 1 -40.4528 3.25653 446.434 -40.4528 3.25653 446.434
2897 1 -42.1691 3.24025 448.319 -42.1691 3.24025 448.319
2582 1 -57.5848 1.82628 440.54 -57.5848 1.82628 440.54
2579 1 -59.3014 1.80989 442.425 -59.3014 1.80989 442.425
2866 1 -61.0179 1.79355 444.311 -61.0179 1.79355 444.311
2578 1 -59.9412 1.09194 440.039 -59.9412 1.09194 440.039
2595 1 -49.6578 1.82363 441.1 -49.6578 1.82363 441.1
2592 1 -51.3743 1.80732 442.986 -51.3743 1.80732 442.986
2880 1 -53.0908 1.79104 444.871 -53.0908 1.79104 444.871
2877 1 -54.8071 1.77482 446.757 -54.8071 1.77482 446.757
2873 1 -56.5233 1.75868 448.642 -56.5233 1.75868 448.642
2609 1 -41.7314 1.82069 441.66 -41.7314 1.82069 441.66
2606 1 -43.448 1.8044 443.546 -43.448 1.8044 443.546
2892 1 -45.1645 1.78811 445.431 -45.1645 1.78811 445.431
2890 1 -46.8807 1.77184 447.317 -46.8807 1.77184 447.317
3174 1 -48.5968 1.75562 449.203 -48.5968 1.75562 449.203
2618 1 -37.0197 3.28911 442.663 -37.0197 3.28911 442.663
2585 1 -55.2285 2.56062 441.041 -55.2285 2.56062 441.041
2583 1 -56.945 2.54426 442.926 -56.945 2.54426 442.926
2870 1 -58.6615 2.52794 444.812 -58.6615 2.52794 444.812
2867 1 -60.3778 2.51167 446.697 -60.3778 2.51167 446.697
2863 1 -62.0941 2.49545 448.583 -62.0941 2.49545 448.583
2599 1 -47.3017 2.55786 441.601 -47.3017 2.55786 441.601
2596 1 -49.0183 2.54155 443.487 -49.0183 2.54155 443.487
2883 1 -50.7347 2.52528 445.372 -50.7347 2.52528 445.372
2881 1 -52.4509 2.50907 447.258 -52.4509 2.50907 447.258
3164 1 -54.1671 2.49295 449.143 -54.1671 2.49295 449.143
2610 1 -41.0922 2.53861 444.047 -41.0922 2.53861 444.047
2896 1 -42.8086 2.52232 445.933 -42.8086 2.52232 445.933
2893 1 -44.5248 2.50604 447.818 -44.5248 2.50604 447.818
3178 1 -46.2409 2.48981 449.704 -46.2409 2.48981 449.704
2575 1 -61.6578 1.07554 441.925 -61.6578 1.07554 441.925
2591 1 -52.0139 1.08937 440.599 -52.0139 1.08937 440.599
2588 1 -53.7305 1.07303 442.485 -53.7305 1.07303 442.485
2876 1 -55.447 1.05673 444.37 -55.447 1.05673 444.37
2872 1 -57.1633 1.04048 446.256 -57.1633 1.04048 446.256
2869 1 -58.8796 1.02429 448.141 -58.8796 1.02429 448.141
2605 1 -44.0873 1.08649 441.159 -44.0873 1.08649 441.159
2602 1 -45.804 1.07019 443.045 -45.804 1.07019 443.045
2889 1 -47.5204 1.0539 444.93 -47.5204 1.0539 444.93
2886 1 -49.2367 1.03764 446.816 -49.2367 1.03764 446.816
3170 1 -50.9529 1.02145 448.702 -50.9529 1.02145 448.702
2899 1 -41.311 1.03466 447.377 -41.311 1.03466 447.377
3184 1 -43.0271 1.01839 449.262 -43.0271 1.01839 449.262
2580 1 -58.4431 4.03181 441.483 -58.4431 4.03181 441.483
2577 1 -60.1596 4.01544 443.368 -60.1596 4.01544 443.368
2864 1 -61.8761 3.99912 445.254 -61.8761 3.99912 445.254
2862 1 -62.7343 1.77725 446.196 -62.7343 1.77725 446.196
2594 1 -50.5161 4.0292 442.043 -50.5161 4.0292 442.043
2590 1 -52.2326 4.0129 443.928 -52.2326 4.0129 443.928
2878 1 -53.9489 3.99665 445.814 -53.9489 3.99665 445.814
2875 1 -55.6652 3.98047 447.7 -55.6652 3.98047 447.7
3159 1 -57.3814 3.96437 449.585 -57.3814 3.96437 449.585
2611 1 -40.873 4.04255 440.718 -40.873 4.04255 440.718
2608 1 -42.5897 4.02628 442.603 -42.5897 4.02628 442.603
2894 1 -44.3063 4.00998 444.489 -44.3063 4.00998 444.489
2891 1 -46.0226 3.99369 446.374 -46.0226 3.99369 446.374
2888 1 -47.7388 3.97745 448.26 -47.7388 3.97745 448.26
2904 1 -38.0972 3.99075 446.935 -38.0972 3.99075 446.935
2621 1 -35.3027 3.30534 440.778 -35.3027 3.30534 440.778
2617 1 -37.6585 2.57114 440.277 -37.6585 2.57114 440.277
2614 1 -39.3755 2.5549 442.162 -39.3755 2.5549 442.162
2908 1 -35.7416 0.297534 447.437 -35.7416 0.297534 447.437
2619 1 -36.1612 1.08351 441.721 -36.1612 1.08351 441.721
2906 1 -36.5997 2.50309 448.379 -36.5997 2.50309 448.379
2905 1 -37.239 1.78518 445.993 -37.239 1.78518 445.993
2620 1 -35.5224 1.80149 444.107 -35.5224 1.80149 444.107
3190 1 -39.8134 3.97445 448.821 -39.8134 3.97445 448.821
2902 1 -38.9553 1.76887 447.878 -38.9553 1.76887 447.878
2903 1 -38.7364 3.27283 444.548 -38.7364 3.27283 444.548
2615 1 -38.5171 0.349298 441.219 -38.5171 0.349298 441.219
2909 1 -34.8834 2.51943 446.494 -34.8834 2.51943 446.494
14 1 -54.1054 4.40667 399.777 -54.1054 4.40667 399.777
7 1 -58.7369 2.91139 398.873 -58.7369 2.91139 398.873
25 1 -46.1598 4.40052 400.252 -46.1598 4.40052 400.252
38 1 -38.2104 4.35227 400.766 -38.2104 4.35227 400.766
23 1 -47.8786 4.36757 402.129 -47.8786 4.36757 402.129
287 1 -51.3112 4.32798 405.87 -51.3112 4.32798 405.87
878 1 -42.3241 4.26092 414.532 -42.3241 4.26092 414.532
579 1 -48.5379 4.2822 412.086 -48.5379 4.2822 412.086
585 1 -45.0985 4.3131 408.319 -45.0985 4.3131 408.319
290 1 -49.5963 4.34513 403.988 -49.5963 4.34513 403.988
11 1 -55.8013 4.35202 401.574 -55.8013 4.35202 401.574
595 1 -38.8852 4.29148 410.764 -38.8852 4.29148 410.764
1134 1 -61.6216 4.23742 417.177 -61.6216 4.23742 417.177
283 1 -53.0319 4.31518 407.753 -53.0319 4.31518 407.753
582 1 -46.818 4.29743 410.203 -46.818 4.29743 410.203
276 1 -57.5317 4.35545 403.434 -57.5317 4.35545 403.434
569 1 -54.7524 4.30247 409.635 -54.7524 4.30247 409.635
847 1 -59.9042 4.25377 415.291 -59.9042 4.25377 415.291
556 1 -62.68 4.30611 409.074 -62.68 4.30611 409.074
272 1 -59.2534 4.34533 405.299 -59.2534 4.34533 405.299
3 1 -60.5582 2.9202 400.56 -60.5582 2.9202 400.56
35 1 -39.9351 4.35908 402.655 -39.9351 4.35908 402.655
598 1 -37.1656 4.30685 408.881 -37.1656 4.30685 408.881
850 1 -58.1869 4.27025 413.406 -58.1869 4.27025 413.406