ITEM: TIMESTEP
0
ITEM: NUMBER OF ATOMS
4630
ITEM: BOX BOUNDS xy xz yz pp pp pp
-6.2140988501799995e+01 1.0516002035000000e+02 0.0000000000000000e+00
0.0000000000000000e+00 4.4274527100805940e+00 0.0000000000000000e+00
3.8000000000000000e+02 5.0000000000000000e+02 0.0000000000000000e+00
ITEM: ATOMS id type x y z xu yu zu
27 1 -44.75 2.34384 399.176 -44.75 2.34384 399.176
36 1 -39.2167 1.60025 399.231 -39.2167 1.60025 399.231
31 1 -42.3712 3.0307 399.615 -42.3712 3.0307 399.615
22 1 -47.9028 3.78202 399.589 -47.9028 3.78202 399.589
20 1 -48.7498 1.56259 400.449 -48.7498 1.56259 400.449
40 1 -36.8406 2.28901 399.674 -36.8406 2.28901 399.674
34 1 -40.0424 3.79942 400.08 -40.0424 3.79942 400.08
17 1 -51.0832 0.807984 399.991 -51.0832 0.807984 399.991
9 1 -56.5739 1.49277 399.908 -56.5739 1.49277 399.908
43 1 -34.5137 3.05857 400.141 -34.5137 3.05857 400.141
12 1 -54.2765 2.31737 400.401 -54.2765 2.31737 400.401
5 1 -58.9444 0.839118 399.45 -58.9444 0.839118 399.45
29 1 -43.22 0.802736 400.479 -43.22 0.802736 400.479
853 1 -55.9759 2.8658 414.718 -55.9759 2.8658 414.718
873 1 -44.9329 1.38825 414.834 -44.9329 1.38825 414.834
865 1 -48.9689 0.634049 416.227 -48.9689 0.634049 416.227
1174 1 -36.4386 2.08853 417.796 -36.4386 2.08853 417.796
883 1 -39.4102 0.648365 414.893 -39.4102 0.648365 414.893
863 1 -50.4554 2.12783 414.776 -50.4554 2.12783 414.776
315 1 -34.7298 1.52119 403.462 -34.7298 1.52119 403.462
307 1 -39.6191 2.97241 405.8 -39.6191 2.97241 405.8
1150 1 -50.6679 0.61061 418.124 -50.6679 0.61061 418.124
855 1 -54.4897 1.37229 416.17 -54.4897 1.37229 416.17
310 1 -37.918 2.99501 403.908 -37.918 2.99501 403.908
871 1 -45.7829 3.59062 415.782 -45.7829 3.59062 415.782
16 1 -51.9262 3.00762 400.859 -51.9262 3.00762 400.859
309 1 -38.1314 1.47844 407.249 -38.1314 1.47844 407.249
1156 1 -47.4825 3.56765 417.678 -47.4825 3.56765 417.678
867 1 -48.1192 2.85933 415.279 -48.1192 2.85933 415.279
1159 1 -45.1465 4.29907 418.181 -45.1465 4.29907 418.181
1168 1 -39.6246 3.55954 418.24 -39.6246 3.55954 418.24
1170 1 -38.7745 1.35713 417.292 -38.7745 1.35713 417.292
594 1 -38.9818 3.68109 408.198 -38.9818 3.68109 408.198
37 1 -38.5522 2.28306 401.528 -38.5522 2.28306 401.528
851 1 -56.8251 0.640262 415.667 -56.8251 0.640262 415.667
857 1 -53.6405 3.59787 415.221 -53.6405 3.59787 415.221
592 1 -39.832 1.45614 409.145 -39.832 1.45614 409.145
849 1 -57.6743 2.84219 416.616 -57.6743 2.84219 416.616
877 1 -42.5966 2.11949 415.337 -42.5966 2.11949 415.337
1143 1 -55.3389 3.57416 417.118 -55.3389 3.57416 417.118
1140 1 -57.0373 3.55041 419.016 -57.0373 3.55041 419.016
845 1 -60.0097 2.11042 416.113 -60.0097 2.11042 416.113
875 1 -43.4467 4.32188 416.285 -43.4467 4.32188 416.285
886 1 -37.7098 0.670914 412.997 -37.7098 0.670914 412.997
891 1 -34.5231 3.62699 412.553 -34.5231 3.62699 412.553
39 1 -37.0719 0.787643 402.951 -37.0719 0.787643 402.951
1177 1 -34.9529 0.59497 419.248 -34.9529 0.59497 419.248
1167 1 -40.4747 1.33447 419.188 -40.4747 1.33447 419.188
8 1 -57.4426 3.75261 400.878 -57.4426 3.75261 400.878
869 1 -46.6328 1.36546 416.73 -46.6328 1.36546 416.73
1136 1 -59.3726 2.81852 418.513 -59.3726 2.81852 418.513
1162 1 -43.6605 2.8053 419.633 -43.6605 2.8053 419.633
15 1 -52.7834 0.799327 401.851 -52.7834 0.799327 401.851
280 1 -54.4847 0.777569 403.733 -54.4847 0.777569 403.733
277 1 -56.1922 0.766222 405.62 -56.1922 0.766222 405.62
273 1 -57.889 0.742727 407.517 -57.889 0.742727 407.517
560 1 -59.5857 0.718198 409.416 -59.5857 0.718198 409.416
557 1 -61.2838 0.694479 411.314 -61.2838 0.694479 411.314
26 1 -44.9262 0.801355 402.384 -44.9262 0.801355 402.384
294 1 -46.6298 0.781713 404.291 -46.6298 0.781713 404.291
291 1 -48.3298 0.755915 406.186 -48.3298 0.755915 406.186
576 1 -50.0293 0.731867 408.081 -50.0293 0.731867 408.081
573 1 -51.7296 0.709978 409.976 -51.7296 0.709978 409.976
570 1 -53.4285 0.687347 411.872 -53.4285 0.687347 411.872
854 1 -55.1267 0.663864 413.769 -55.1267 0.663864 413.769
305 1 -40.4684 0.747759 406.746 -40.4684 0.747759 406.746
589 1 -42.1687 0.725085 408.642 -42.1687 0.725085 408.642
586 1 -43.8689 0.702326 410.539 -43.8689 0.702326 410.539
872 1 -45.5692 0.679678 412.435 -45.5692 0.679678 412.435
599 1 -36.0091 0.693346 411.101 -36.0091 0.693346 411.101
1132 1 -61.708 2.08679 418.011 -61.708 2.08679 418.011
4 1 -59.1771 3.76745 402.702 -59.1771 3.76745 402.702
268 1 -60.8604 3.73095 404.612 -60.8604 3.73095 404.612
1152 1 -49.8184 2.8361 417.175 -49.8184 2.8361 417.175
19 1 -49.6106 3.75025 401.395 -49.6106 3.75025 401.395
286 1 -51.3017 3.7291 403.271 -51.3017 3.7291 403.271
282 1 -52.9991 3.71197 405.175 -52.9991 3.71197 405.175
279 1 -54.7028 3.69618 407.07 -54.7028 3.69618 407.07
565 1 -56.4015 3.67486 408.967 -56.4015 3.67486 408.967
563 1 -58.0991 3.65132 410.866 -58.0991 3.65132 410.866
846 1 -59.7974 3.62785 412.764 -59.7974 3.62785 412.764
32 1 -41.7417 3.75564 401.964 -41.7417 3.75564 401.964
300 1 -43.4438 3.73629 403.85 -43.4438 3.73629 403.85
297 1 -45.1436 3.71349 405.742 -45.1436 3.71349 405.742
293 1 -46.8428 3.69027 407.638 -46.8428 3.69027 407.638
578 1 -48.5427 3.66701 409.533 -48.5427 3.66701 409.533
575 1 -50.2428 3.64445 411.428 -50.2428 3.64445 411.428
860 1 -51.942 3.62145 413.324 -51.942 3.62145 413.324
591 1 -40.6822 3.65852 410.093 -40.6822 3.65852 410.093
588 1 -42.3825 3.63589 411.99 -42.3825 3.63589 411.99
874 1 -44.0828 3.61328 413.886 -44.0828 3.61328 413.886
10 1 -55.9698 2.26016 402.288 -55.9698 2.26016 402.288
274 1 -57.6845 2.26493 404.163 -57.6845 2.26493 404.163
271 1 -59.3758 2.23766 406.065 -59.3758 2.23766 406.065
558 1 -61.0719 2.21216 407.964 -61.0719 2.21216 407.964
24 1 -46.4346 2.29591 400.976 -46.4346 2.29591 400.976
21 1 -48.1253 2.27332 402.841 -48.1253 2.27332 402.841
288 1 -49.8166 2.2473 404.737 -49.8166 2.2473 404.737
285 1 -51.5152 2.22304 406.631 -51.5152 2.22304 406.631
571 1 -53.2164 2.20282 408.524 -53.2164 2.20282 408.524
568 1 -54.9151 2.18082 410.42 -54.9151 2.18082 410.42
852 1 -56.613 2.15742 412.318 -56.613 2.15742 412.318
848 1 -58.3112 2.13394 414.216 -58.3112 2.13394 414.216
306 1 -40.2566 2.26247 403.401 -40.2566 2.26247 403.401
302 1 -41.9562 2.24113 405.293 -41.9562 2.24113 405.293
299 1 -43.6557 2.21897 407.191 -43.6557 2.21897 407.191
583 1 -45.3556 2.19626 409.088 -45.3556 2.19626 409.088
581 1 -47.0558 2.17346 410.984 -47.0558 2.17346 410.984
866 1 -48.756 2.15085 412.879 -48.756 2.15085 412.879
880 1 -40.8963 2.1421 413.441 -40.8963 2.1421 413.441
312 1 -36.4309 1.50025 405.353 -36.4309 1.50025 405.353
2 1 -60.6785 0.850158 401.267 -60.6785 0.850158 401.267
13 1 -53.6264 2.99861 402.77 -53.6264 2.99861 402.77
278 1 -55.3377 2.9858 404.67 -55.3377 2.9858 404.67
275 1 -57.0405 2.96879 406.565 -57.0405 2.96879 406.565
562 1 -58.7367 2.944 408.466 -58.7367 2.944 408.466
559 1 -60.4346 2.92 410.364 -60.4346 2.92 410.364
1166 1 -41.3247 3.5368 420.136 -41.3247 3.5368 420.136
889 1 -35.3735 1.40211 413.501 -35.3735 1.40211 413.501
28 1 -44.0801 3.0254 401.471 -44.0801 3.0254 401.471
296 1 -45.783 3.00511 403.345 -45.783 3.00511 403.345
292 1 -47.4808 2.98261 405.239 -47.4808 2.98261 405.239
289 1 -49.1792 2.95761 407.135 -49.1792 2.95761 407.135
574 1 -50.8795 2.93476 409.029 -50.8795 2.93476 409.029
572 1 -52.5793 2.91262 410.924 -52.5793 2.91262 410.924
856 1 -54.2777 2.8894 412.821 -54.2777 2.8894 412.821
303 1 -41.319 2.94994 407.694 -41.319 2.94994 407.694
587 1 -43.0189 2.92736 409.59 -43.0189 2.92736 409.59
584 1 -44.7191 2.90469 411.487 -44.7191 2.90469 411.487
870 1 -46.4193 2.8821 413.383 -46.4193 2.8821 413.383
6 1 -58.3192 1.55819 401.76 -58.3192 1.55819 401.76
270 1 -60.0157 1.53351 403.656 -60.0157 1.53351 403.656
267 1 -61.7078 1.50397 405.562 -61.7078 1.50397 405.562
890 1 -34.738 2.11097 415.901 -34.738 2.11097 415.901
18 1 -50.4487 1.52751 402.34 -50.4487 1.52751 402.34
284 1 -52.1476 1.50875 404.233 -52.1476 1.50875 404.233
281 1 -53.8518 1.4912 406.126 -53.8518 1.4912 406.126
567 1 -55.5529 1.47264 408.019 -55.5529 1.47264 408.019
564 1 -57.2503 1.44942 409.917 -57.2503 1.44942 409.917
561 1 -58.9483 1.42586 411.816 -58.9483 1.42586 411.816
844 1 -60.6467 1.40239 413.713 -60.6467 1.40239 413.713
33 1 -40.9076 1.55278 401.027 -40.9076 1.55278 401.027
30 1 -42.599 1.52888 402.892 -42.599 1.52888 402.892
298 1 -44.2939 1.51066 404.791 -44.2939 1.51066 404.791
295 1 -45.993 1.4883 406.689 -45.993 1.4883 406.689
580 1 -47.6926 1.46471 408.585 -47.6926 1.46471 408.585
577 1 -49.3928 1.44191 410.48 -49.3928 1.44191 410.48
862 1 -51.0925 1.41929 412.376 -51.0925 1.41929 412.376
590 1 -41.5323 1.43351 411.042 -41.5323 1.43351 411.042
876 1 -43.2326 1.41086 412.938 -43.2326 1.41086 412.938
1163 1 -42.8106 0.603024 418.685 -42.8106 0.603024 418.685
1153 1 -49.1816 3.54429 419.575 -49.1816 3.54429 419.575
311 1 -37.2804 3.70361 406.303 -37.2804 3.70361 406.303
42 1 -35.3787 0.811687 401.088 -35.3787 0.811687 401.088
1135 1 -60.2218 0.592925 419.462 -60.2218 0.592925 419.462
1171 1 -38.1389 2.06595 419.692 -38.1389 2.06595 419.692
1139 1 -57.8865 1.32479 419.965 -57.8865 1.32479 419.965
601 1 -35.1588 2.91818 410.154 -35.1588 2.91818 410.154
313 1 -35.577 3.7263 404.406 -35.577 3.7263 404.406
858 1 -52.7913 1.39596 414.272 -52.7913 1.39596 414.272
868 1 -47.2693 0.657047 414.331 -47.2693 0.657047 414.331
1147 1 -53.0035 4.30618 417.621 -53.0035 4.30618 417.621
843 1 -61.4959 3.60436 414.662 -61.4959 3.60436 414.662
593 1 -39.1959 2.1647 411.545 -39.1959 2.1647 411.545
308 1 -38.7682 0.769571 404.849 -38.7682 0.769571 404.849
861 1 -51.3048 4.32984 415.724 -51.3048 4.32984 415.724
1158 1 -45.9963 2.07382 419.13 -45.9963 2.07382 419.13
884 1 -38.56 2.87338 413.945 -38.56 2.87338 413.945
881 1 -40.2604 2.8508 415.84 -40.2604 2.8508 415.84
885 1 -37.9243 3.58214 416.344 -37.9243 3.58214 416.344
859 1 -52.1542 2.1043 416.672 -52.1542 2.1043 416.672
596 1 -37.4955 2.18715 409.649 -37.4955 2.18715 409.649
879 1 -41.1105 0.625754 416.788 -41.1105 0.625754 416.788
1172 1 -37.2888 4.29098 418.744 -37.2888 4.29098 418.744
1154 1 -48.3321 1.34229 418.627 -48.3321 1.34229 418.627
887 1 -37.0741 1.37968 415.396 -37.0741 1.37968 415.396
597 1 -36.8595 2.89587 412.049 -36.8595 2.89587 412.049
1161 1 -44.2966 2.09678 417.233 -44.2966 2.09678 417.233
1138 1 -58.5235 0.616636 417.565 -58.5235 0.616636 417.565
1149 1 -51.5172 2.81251 419.072 -51.5172 2.81251 419.072
41 1 -36.2141 3.0141 402.024 -36.2141 3.0141 402.024
888 1 -36.2238 3.60464 414.449 -36.2238 3.60464 414.449
1165 1 -41.9606 2.82814 417.736 -41.9606 2.82814 417.736
1141 1 -56.1881 1.34856 418.067 -56.1881 1.34856 418.067
1145 1 -53.8527 2.08057 418.57 -53.8527 2.08057 418.57
600 1 -35.7948 2.20934 407.754 -35.7948 2.20934 407.754
1148 1 -52.3665 0.586922 420.021 -52.3665 0.586922 420.021
882 1 -40.0461 4.36713 412.493 -40.0461 4.36713 412.493
1157 1 -46.8459 4.27593 420.078 -46.8459 4.27593 420.078
1144 1 -54.7019 4.28241 419.518 -54.7019 4.28241 419.518
602 1 -34.3081 0.715565 409.206 -34.3081 0.715565 409.206
1131 1 -61.92 0.569099 421.36 -61.92 0.569099 421.36
1755 1 -34.747 2.69928 428.344 -34.747 2.69928 428.344
1460 1 -39.2032 2.75195 423.988 -39.2032 2.75195 423.988
2308 1 -48.7566 3.31862 437.772 -48.7566 3.31862 437.772
2316 1 -43.8761 1.8732 435.428 -43.8761 1.8732 435.428
2312 1 -46.4222 4.05101 438.274 -46.4222 4.05101 438.274
1464 1 -36.8678 3.48368 424.492 -36.8678 3.48368 424.492
1461 1 -38.3533 0.549677 423.04 -38.3533 0.549677 423.04
2039 1 -37.5093 3.36157 434.537 -37.5093 3.36157 434.537
2613 1 -39.4197 1.82082 439.784 -39.4197 1.82082 439.784
1467 1 -34.5324 4.21542 424.996 -34.5324 4.21542 424.996
2603 1 -44.9364 2.55771 439.726 -44.9364 2.55771 439.726
1443 1 -48.5449 4.25249 421.975 -48.5449 4.25249 421.975
1748 1 -38.5674 3.46071 426.388 -38.5674 3.46071 426.388
2023 1 -46.2106 1.14088 434.925 -46.2106 1.14088 434.925
2310 1 -47.2707 1.82529 439.223 -47.2707 1.82529 439.223
1151 1 -50.031 1.31878 420.524 -50.031 1.31878 420.524
2303 1 -51.9396 0.360475 438.218 -51.9396 0.360475 438.218
2299 1 -54.2742 4.05555 437.715 -54.2742 4.05555 437.715
2033 1 -40.6928 0.403707 434.982 -40.6928 0.403707 434.982
1433 1 -54.065 0.56311 421.918 -54.065 0.56311 421.918
1430 1 -55.7633 0.539206 423.816 -55.7633 0.539206 423.816
1426 1 -57.4614 0.515216 425.714 -57.4614 0.515216 425.714
1713 1 -59.1593 0.491148 427.612 -59.1593 0.491148 427.612
1710 1 -60.857 0.467023 429.51 -60.857 0.467023 429.51
2330 1 -35.3881 2.5771 438.39 -35.3881 2.5771 438.39
1160 1 -44.5102 0.580053 420.581 -44.5102 0.580053 420.581
1447 1 -46.2095 0.556787 422.478 -46.2095 0.556787 422.478
1444 1 -47.9083 0.533263 424.375 -47.9083 0.533263 424.375
1730 1 -49.6068 0.509542 426.272 -49.6068 0.509542 426.272
1727 1 -51.305 0.485669 428.17 -51.305 0.485669 428.17
1724 1 -53.003 0.461677 430.068 -53.003 0.461677 430.068
2008 1 -54.7007 0.437596 431.966 -54.7007 0.437596 431.966
2006 1 -56.3981 0.413457 433.864 -56.3981 0.413457 433.864
1458 1 -40.0529 0.526704 424.936 -40.0529 0.526704 424.936
1743 1 -41.7522 0.503479 426.833 -41.7522 0.503479 426.833
1740 1 -43.451 0.480016 428.729 -43.451 0.480016 428.729
2026 1 -45.1494 0.456352 430.627 -45.1494 0.456352 430.627
2022 1 -46.8474 0.432527 432.524 -46.8474 0.432527 432.524
2019 1 -48.5451 0.408581 434.422 -48.5451 0.408581 434.422
2309 1 -47.908 1.11691 436.823 -47.908 1.11691 436.823
1137 1 -58.7356 3.52661 420.914 -58.7356 3.52661 420.914
1421 1 -60.4338 3.50271 422.811 -60.4338 3.50271 422.811
1439 1 -50.8804 3.52067 421.472 -50.8804 3.52067 421.472
1435 1 -52.5789 3.49688 423.37 -52.5789 3.49688 423.37
1432 1 -54.2772 3.47297 425.267 -54.2772 3.47297 425.267
1719 1 -55.9752 3.44897 427.165 -55.9752 3.44897 427.165
1716 1 -57.673 3.42489 429.063 -57.673 3.42489 429.063
2001 1 -59.3707 3.40075 430.961 -59.3707 3.40075 430.961
1998 1 -61.0682 3.37658 432.859 -61.0682 3.37658 432.859
2323 1 -39.2074 3.3379 436.434 -39.2074 3.3379 436.434
1453 1 -43.0243 3.51382 422.033 -43.0243 3.51382 422.033
1450 1 -44.7236 3.49058 423.929 -44.7236 3.49058 423.929
1446 1 -46.4224 3.46708 425.826 -46.4224 3.46708 425.826
1732 1 -48.1209 3.44339 427.724 -48.1209 3.44339 427.724
1729 1 -49.8191 3.41953 429.621 -49.8191 3.41953 429.621
2014 1 -51.517 3.39555 431.519 -51.517 3.39555 431.519
2011 1 -53.2146 3.37149 433.417 -53.2146 3.37149 433.417
1745 1 -40.2666 3.4375 428.284 -40.2666 3.4375 428.284
1742 1 -41.9654 3.41404 430.181 -41.9654 3.41404 430.181
2028 1 -43.6638 3.39038 432.078 -43.6638 3.39038 432.078
2025 1 -45.3617 3.36657 433.976 -45.3617 3.36657 433.976
1427 1 -57.2494 2.0329 422.365 -57.2494 2.0329 422.365
1424 1 -58.9476 2.00894 424.263 -58.9476 2.00894 424.263
1711 1 -60.6455 1.98491 426.161 -60.6455 1.98491 426.161
2322 1 -40.0563 1.11227 437.383 -40.0563 1.11227 437.383
1750 1 -37.082 1.96735 427.84 -37.082 1.96735 427.84
1155 1 -47.6955 2.05052 421.026 -47.6955 2.05052 421.026
1441 1 -49.3943 2.02695 422.924 -49.3943 2.02695 422.924
1438 1 -51.0928 2.0032 424.821 -51.0928 2.0032 424.821
1725 1 -52.7911 1.97931 426.719 -52.7911 1.97931 426.719
1722 1 -54.4891 1.9553 428.616 -54.4891 1.9553 428.616
1718 1 -56.1868 1.93122 430.514 -56.1868 1.93122 430.514
2003 1 -57.8844 1.90707 432.412 -57.8844 1.90707 432.412
2000 1 -59.5818 1.8829 434.31 -59.5818 1.8829 434.31
1459 1 -39.8389 2.0432 421.588 -39.8389 2.0432 421.588
1455 1 -41.5386 2.02022 423.484 -41.5386 2.02022 423.484
1452 1 -43.2378 1.99699 425.381 -43.2378 1.99699 425.381
1737 1 -44.9366 1.97351 427.278 -44.9366 1.97351 427.278
1735 1 -46.6351 1.94984 429.175 -46.6351 1.94984 429.175
2020 1 -48.3332 1.926 431.073 -48.3332 1.926 431.073
2017 1 -50.031 1.90204 432.97 -50.031 1.90204 432.97
2034 1 -40.4799 1.92068 431.633 -40.4799 1.92068 431.633
2031 1 -42.1782 1.89702 433.53 -42.1782 1.89702 433.53
2029 1 -43.0272 4.09885 434.479 -43.0272 4.09885 434.479
1146 1 -53.2158 2.78875 420.97 -53.2158 2.78875 420.97
1431 1 -54.9142 2.7649 422.867 -54.9142 2.7649 422.867
1428 1 -56.6124 2.74095 424.765 -56.6124 2.74095 424.765
1715 1 -58.3103 2.71692 426.663 -58.3103 2.71692 426.663
1712 1 -60.0082 2.69282 428.561 -60.0082 2.69282 428.561
1708 1 -61.7058 2.66867 430.459 -61.7058 2.66867 430.459
1747 1 -38.7812 1.94413 429.736 -38.7812 1.94413 429.736
1449 1 -45.3599 2.78218 421.529 -45.3599 2.78218 421.529
1445 1 -47.0589 2.75878 423.426 -47.0589 2.75878 423.426
1442 1 -48.7576 2.73515 425.324 -48.7576 2.73515 425.324
1728 1 -50.456 2.71135 427.221 -50.456 2.71135 427.221
1726 1 -52.1541 2.68741 429.119 -52.1541 2.68741 429.119
2010 1 -53.8519 2.66337 431.017 -53.8519 2.66337 431.017
2007 1 -55.5494 2.63926 432.915 -55.5494 2.63926 432.915
1456 1 -40.9026 2.72885 425.884 -40.9026 2.72885 425.884
1741 1 -42.6016 2.7055 427.781 -42.6016 2.7055 427.781
1738 1 -44.3002 2.68193 429.678 -44.3002 2.68193 429.678
2024 1 -45.9984 2.65818 431.575 -45.9984 2.65818 431.575
2021 1 -47.6963 2.63429 433.473 -47.6963 2.63429 433.473
2035 1 -39.8437 2.62929 434.033 -39.8437 2.62929 434.033
1754 1 -35.3824 1.9903 425.944 -35.3824 1.9903 425.944
1423 1 -59.5847 1.30095 421.863 -59.5847 1.30095 421.863
1420 1 -61.2828 1.27701 423.76 -61.2828 1.27701 423.76
2044 1 -34.3256 1.89187 434.092 -34.3256 1.89187 434.092
1437 1 -51.7297 1.29506 422.421 -51.7297 1.29506 422.421
1434 1 -53.428 1.27121 424.318 -53.428 1.27121 424.318
1721 1 -55.1262 1.24726 426.216 -55.1262 1.24726 426.216
1717 1 -56.8242 1.22321 428.114 -56.8242 1.22321 428.114
1714 1 -58.5219 1.19909 430.012 -58.5219 1.19909 430.012
1999 1 -60.2194 1.17494 431.91 -60.2194 1.17494 431.91
1997 1 -61.9169 1.15077 433.808 -61.9169 1.15077 433.808
1164 1 -42.1746 1.31162 421.084 -42.1746 1.31162 421.084
1451 1 -43.874 1.28851 422.981 -43.874 1.28851 422.981
1448 1 -45.573 1.26513 424.878 -45.573 1.26513 424.878
1734 1 -47.2717 1.24153 426.775 -47.2717 1.24153 426.775
1731 1 -48.97 1.21775 428.672 -48.97 1.21775 428.672
2016 1 -50.6681 1.19383 430.57 -50.6681 1.19383 430.57
2012 1 -52.3658 1.1698 432.468 -52.3658 1.1698 432.468
2009 1 -54.0633 1.1457 434.366 -54.0633 1.1457 434.366
1746 1 -39.4171 1.23541 427.336 -39.4171 1.23541 427.336
1744 1 -41.1161 1.21207 429.233 -41.1161 1.21207 429.233
2030 1 -42.8146 1.18851 431.13 -42.8146 1.18851 431.13
2027 1 -44.5128 1.16476 433.027 -44.5128 1.16476 433.027
2325 1 -38.3584 1.13603 435.485 -38.3584 1.13603 435.485
1749 1 -37.9317 4.1695 428.788 -37.9317 4.1695 428.788
1425 1 -58.0985 4.23466 423.314 -58.0985 4.23466 423.314
1736 1 -45.7859 4.17542 428.226 -45.7859 4.17542 428.226
1142 1 -55.5511 2.05677 420.467 -55.5511 2.05677 420.467
1720 1 -55.338 4.15699 429.565 -55.338 4.15699 429.565
2005 1 -57.0356 4.13288 431.463 -57.0356 4.13288 431.463
2002 1 -58.7331 4.10871 433.361 -58.7331 4.10871 433.361
1169 1 -38.9889 4.26832 420.64 -38.9889 4.26832 420.64
1723 1 -53.6401 4.18104 427.667 -53.6401 4.18104 427.667
1440 1 -50.2436 4.22882 423.872 -50.2436 4.22882 423.872
1733 1 -47.4842 4.15166 430.124 -47.4842 4.15166 430.124
2018 1 -49.1822 4.12776 432.022 -49.1822 4.12776 432.022
2015 1 -50.8798 4.10375 433.919 -50.8798 4.10375 433.919
2036 1 -39.6306 4.14616 430.685 -39.6306 4.14616 430.685
2032 1 -41.3291 4.1226 432.582 -41.3291 4.1226 432.582
2326 1 -37.7221 1.84467 437.886 -37.7221 1.84467 437.886
1752 1 -36.2323 4.19258 426.892 -36.2323 4.19258 426.892
1457 1 -40.6888 4.24547 422.536 -40.6888 4.24547 422.536
2043 1 -34.9612 1.18296 431.692 -34.9612 1.18296 431.692
2286 1 -61.279 1.85874 436.209 -61.279 1.85874 436.209
2319 1 -41.7537 1.08838 439.28 -41.7537 1.08838 439.28
1436 1 -51.942 4.20499 425.77 -51.942 4.20499 425.77
1422 1 -59.7966 4.21066 425.212 -59.7966 4.21066 425.212
1173 1 -36.6533 0.572418 421.144 -36.6533 0.572418 421.144
2293 1 -57.4575 1.09742 438.162 -57.4575 1.09742 438.162
2289 1 -59.7925 0.365141 437.66 -59.7925 0.365141 437.66
2295 1 -55.9711 4.03143 439.614 -55.9711 4.03143 439.614
1465 1 -36.0178 1.28135 423.544 -36.0178 1.28135 423.544
2315 1 -44.0879 0.355965 438.777 -44.0879 0.355965 438.777
2331 1 -35.1749 4.09388 435.041 -35.1749 4.09388 435.041
2297 1 -55.1227 1.82976 438.665 -55.1227 1.82976 438.665
2324 1 -38.571 4.04649 438.835 -38.571 4.04649 438.835
2306 1 -49.6051 1.09288 438.721 -49.6051 1.09288 438.721
2285 1 -61.4894 0.341033 439.558 -61.4894 0.341033 439.558
1462 1 -37.7177 1.2585 425.44 -37.7177 1.2585 425.44
1751 1 -36.4464 2.6762 430.24 -36.4464 2.6762 430.24
2329 1 -36.0241 1.86837 435.989 -36.0241 1.86837 435.989
2042 1 -35.8107 3.38505 432.64 -35.8107 3.38505 432.64
2041 1 -36.6601 1.15961 433.588 -36.6601 1.15961 433.588
2593 1 -50.4535 3.29458 439.67 -50.4535 3.29458 439.67
2328 1 -36.237 0.351482 439.338 -36.237 0.351482 439.338
2301 1 -52.788 2.56216 439.167 -52.788 2.56216 439.167
1466 1 -35.1677 3.50641 422.596 -35.1677 3.50641 422.596
2298 1 -54.9119 3.34736 435.315 -54.9119 3.34736 435.315
2321 1 -40.9051 3.31407 438.332 -40.9051 3.31407 438.332
2313 1 -45.5736 1.84928 437.325 -45.5736 1.84928 437.325
2294 1 -56.609 3.32321 437.213 -56.609 3.32321 437.213
2304 1 -51.0911 2.58624 437.269 -51.0911 2.58624 437.269
2300 1 -53.4257 1.85388 436.766 -53.4257 1.85388 436.766
2290 1 -58.944 2.59094 436.711 -58.944 2.59094 436.711
2318 1 -42.3905 0.379889 436.88 -42.3905 0.379889 436.88
2327 1 -36.8732 4.07027 436.937 -36.8732 4.07027 436.937
2004 1 -57.2468 2.6151 434.813 -57.2468 2.6151 434.813
2013 1 -51.7285 1.87799 434.868 -51.7285 1.87799 434.868
2288 1 -60.4304 4.08454 435.26 -60.4304 4.08454 435.26
2037 1 -38.9946 0.42737 433.085 -38.9946 0.42737 433.085
1739 1 -44.0873 4.19901 426.329 -44.0873 4.19901 426.329
1753 1 -35.5968 0.474047 429.292 -35.5968 0.474047 429.292
2307 1 -49.3938 2.6103 435.371 -49.3938 2.6103 435.371
2314 1 -44.7249 4.07498 436.377 -44.7249 4.07498 436.377
2040 1 -37.2959 0.45083 431.188 -37.2959 0.45083 431.188
2320 1 -41.5417 2.60554 435.931 -41.5417 2.60554 435.931
2292 1 -58.0954 0.389294 435.762 -58.0954 0.389294 435.762
2311 1 -47.0593 3.34263 435.874 -47.0593 3.34263 435.874
2302 1 -52.5771 4.07967 435.817 -52.5771 4.07967 435.817
2296 1 -55.7605 1.12156 436.264 -55.7605 1.12156 436.264
1463 1 -37.5033 2.7748 422.092 -37.5033 2.7748 422.092
2287 1 -60.641 2.56681 438.609 -60.641 2.56681 438.609
2291 1 -58.306 3.29908 439.111 -58.306 3.29908 439.111
2317 1 -43.2392 2.58166 437.828 -43.2392 2.58166 437.828
2038 1 -38.1453 2.65285 432.136 -38.1453 2.65285 432.136
2305 1 -50.2425 0.384552 436.32 -50.2425 0.384552 436.32
2332 1 -34.5391 0.375218 437.441 -34.5391 0.375218 437.441
1709 1 -61.4944 4.18659 427.11 -61.4944 4.18659 427.11
1468 1 -34.3176 1.30397 421.648 -34.3176 1.30397 421.648
1454 1 -42.3882 4.22236 424.432 -42.3882 4.22236 424.432
1429 1 -56.4003 4.25857 421.416 -56.4003 4.25857 421.416
1133 1 -61.0709 2.79475 420.411 -61.0709 2.79475 420.411
1175 1 -35.8031 2.79744 420.196 -35.8031 2.79744 420.196
2616 1 -37.2975 1.03614 443.637 -37.2975 1.03614 443.637
2901 1 -38.994 1.01215 445.535 -38.994 1.01215 445.535
2907 1 -35.8122 3.97037 445.089 -35.8122 3.97037 445.089
3194 1 -36.8709 0.227372 449.388 -36.8709 0.227372 449.388
2587 1 -53.6364 0.336385 440.116 -53.6364 0.336385 440.116
2597 1 -48.1191 4.027 440.172 -48.1191 4.027 440.172
2584 1 -55.333 0.312316 442.014 -55.333 0.312316 442.014
2581 1 -57.0295 0.2883 443.912 -57.0295 0.2883 443.912
2868 1 -58.7257 0.264371 445.81 -58.7257 0.264371 445.81
2865 1 -60.4219 0.24056 447.708 -60.4219 0.24056 447.708
2601 1 -45.7849 0.331985 440.675 -45.7849 0.331985 440.675
2598 1 -47.4815 0.30799 442.573 -47.4815 0.30799 442.573
2885 1 -49.1779 0.284021 444.471 -49.1779 0.284021 444.471
2882 1 -50.8739 0.260116 446.37 -50.8739 0.260116 446.37
2879 1 -52.5698 0.236319 448.268 -52.5698 0.236319 448.268
2612 1 -39.6312 0.303648 443.133 -39.6312 0.303648 443.133
2898 1 -41.3277 0.279673 445.031 -41.3277 0.279673 445.031
2895 1 -43.0238 0.255724 446.929 -43.0238 0.255724 446.929
3180 1 -44.7196 0.231834 448.828 -44.7196 0.231834 448.828
2576 1 -60.0028 3.27499 441.009 -60.0028 3.27499 441.009
2574 1 -61.6994 3.25098 442.907 -61.6994 3.25098 442.907
2589 1 -52.1502 3.27053 441.568 -52.1502 3.27053 441.568
2586 1 -53.8466 3.24651 443.466 -53.8466 3.24651 443.466
2874 1 -55.5429 3.22256 445.364 -55.5429 3.22256 445.364
2871 1 -57.2389 3.19871 447.262 -57.2389 3.19871 447.262
3155 1 -58.9349 3.17499 449.16 -58.9349 3.17499 449.16
2607 1 -42.6023 3.29014 440.229 -42.6023 3.29014 440.229
2604 1 -44.2991 3.26616 442.127 -44.2991 3.26616 442.127
2600 1 -45.9956 3.24219 444.025 -45.9956 3.24219 444.025
2887 1 -47.6917 3.21824 445.923 -47.6917 3.21824 445.923
2884 1 -49.3876 3.19438 447.822 -49.3876 3.19438 447.822
3168 1 -51.0833 3.17063 449.72 -51.0833 3.17063 449.72
2900 1 -39.8421 3.21389 446.484 -39.8421 3.21389 446.484
2897 1 -41.538 3.18996 448.382 -41.538 3.18996 448.382
2582 1 -56.8195 1.80565 440.563 -56.8195 1.80565 440.563
2579 1 -58.5161 1.78159 442.461 -58.5161 1.78159 442.461
2866 1 -60.2126 1.75761 444.359 -60.2126 1.75761 444.359
2578 1 -59.1544 1.0733 440.06 -59.1544 1.0733 440.06
2595 1 -48.9675 1.80127 441.121 -48.9675 1.80127 441.121
2592 1 -50.664 1.77726 443.02 -50.664 1.77726 443.02
2880 1 -52.3603 1.7533 444.918 -52.3603 1.7533 444.918
2877 1 -54.0563 1.72943 446.816 -54.0563 1.72943 446.816
2873 1 -55.7522 1.70569 448.714 -55.7522 1.70569 448.714
2609 1 -41.1167 1.79688 441.681 -41.1167 1.79688 441.681
2606 1 -42.8134 1.77291 443.579 -42.8134 1.77291 443.579
2892 1 -44.5097 1.74895 445.477 -44.5097 1.74895 445.477
2890 1 -46.2056 1.72503 447.376 -46.2056 1.72503 447.376
3174 1 -47.9013 1.70119 449.274 -47.9013 1.70119 449.274
2618 1 -36.4491 3.26185 442.688 -36.4491 3.26185 442.688
2585 1 -54.4848 2.53807 441.065 -54.4848 2.53807 441.065
2583 1 -56.1813 2.51403 442.963 -56.1813 2.51403 442.963
2870 1 -57.8776 2.49005 444.861 -57.8776 2.49005 444.861
2867 1 -59.5738 2.46618 446.759 -59.5738 2.46618 446.759
2863 1 -61.27 2.44243 448.657 -61.27 2.44243 448.657
2599 1 -46.6332 2.53371 441.624 -46.6332 2.53371 441.624
2596 1 -48.3297 2.50973 443.522 -48.3297 2.50973 443.522
2883 1 -50.0259 2.48578 445.421 -50.0259 2.48578 445.421
2881 1 -51.7219 2.46193 447.319 -51.7219 2.46193 447.319
3164 1 -53.4177 2.4382 449.217 -53.4177 2.4382 449.217
2610 1 -40.4795 2.50539 444.082 -40.4795 2.50539 444.082
2896 1 -42.1758 2.48142 445.98 -42.1758 2.48142 445.98
2893 1 -43.8717 2.4575 447.879 -43.8717 2.4575 447.879
3178 1 -45.5673 2.43365 449.777 -45.5673 2.43365 449.777
2575 1 -60.8511 1.04924 441.958 -60.8511 1.04924 441.958
2591 1 -51.3019 1.06882 440.619 -51.3019 1.06882 440.619
2588 1 -52.9984 1.04479 442.517 -52.9984 1.04479 442.517
2876 1 -54.6948 1.0208 444.415 -54.6948 1.0208 444.415
2872 1 -56.3909 0.996895 446.313 -56.3909 0.996895 446.313
2869 1 -58.0869 0.973105 448.211 -58.0869 0.973105 448.211
2605 1 -43.4507 1.06443 441.178 -43.4507 1.06443 441.178
2602 1 -45.1474 1.04045 443.076 -45.1474 1.04045 443.076
2889 1 -46.8437 1.01648 444.974 -46.8437 1.01648 444.974
2886 1 -48.5397 0.992572 446.873 -48.5397 0.992572 446.873
3170 1 -50.2355 0.968759 448.771 -50.2355 0.968759 448.771
2899 1 -40.6901 0.98819 447.433 -40.6901 0.98819 447.433
3184 1 -42.3858 0.964296 449.331 -42.3858 0.964296 449.331
2580 1 -57.6678 4.00734 441.512 -57.6678 4.00734 441.512
2577 1 -59.3643 3.98331 443.41 -59.3643 3.98331 443.41
2864 1 -61.0608 3.95939 445.308 -61.0608 3.95939 445.308
2862 1 -61.909 1.73375 446.257 -61.909 1.73375 446.257
2594 1 -49.8158 4.00299 442.07 -49.8158 4.00299 442.07
2590 1 -51.5122 3.979 443.969 -51.5122 3.979 443.969
2878 1 -53.2083 3.95508 445.867 -53.2083 3.95508 445.867
2875 1 -54.9043 3.93127 447.765 -54.9043 3.93127 447.765
3159 1 -56.6001 3.9076 449.663 -56.6001 3.9076 449.663
2611 1 -40.2682 4.02259 440.732 -40.2682 4.02259 440.732
2608 1 -41.9651 3.99862 442.63 -41.9651 3.99862 442.63
2894 1 -43.6616 3.97465 444.528 -43.6616 3.97465 444.528
2891 1 -45.3577 3.95071 446.426 -45.3577 3.95071 446.426
2888 1 -47.0535 3.92682 448.325 -47.0535 3.92682 448.325
2904 1 -37.5085 3.94636 446.987 -37.5085 3.94636 446.987
2621 1 -34.7519 3.28577 440.79 -34.7519 3.28577 440.79
2617 1 -37.0857 2.55328 440.287 -37.0857 2.55328 440.287
2614 1 -38.7828 2.52936 442.185 -38.7828 2.52936 442.185
2908 1 -35.1751 0.251394 447.49 -35.1751 0.251394 447.49
2619 1 -35.6005 1.0601 441.739 -35.6005 1.0601 441.739
2906 1 -36.0231 2.4531 448.439 -36.0231 2.4531 448.439
2905 1 -36.6604 1.74464 446.038 -36.6604 1.74464 446.038
2620 1 -34.9639 1.76866 444.14 -34.9639 1.76866 444.14
3190 1 -39.2044 3.9224 448.885 -39.2044 3.9224 448.885
2902 1 -38.3565 1.72064 447.936 -38.3565 1.72064 447.936
2903 1 -38.1458 3.23787 444.586 -38.1458 3.23787 444.586
2615 1 -37.9343 0.327603 441.236 -37.9343 0.327603 441.236
2909 1 -34.327 2.47716 446.542 -34.327 2.47716 446.542
14 1 -53.4597 0.118631 399.551 -53.4597 4.54608 399.551
7 1 -58.0332 3.05771 398.651 -58.0332 3.05771 398.651
25 1 -45.5762 0.115147 400.026 -45.5762 4.5426 400.026
38 1 -37.6889 0.0609159 400.538 -37.6889 4.48837 400.538
23 1 -47.2739 0.074054 401.913 -47.2739 4.50151 401.913
287 1 -50.6659 0.0196396 405.681 -50.6659 4.44709 405.681
878 1 -41.7464 4.34452 414.389 -41.7464 4.34452 414.389
579 1 -47.906 4.37592 411.932 -47.906 4.37592 411.932
585 1 -44.5055 4.42147 408.14 -44.5055 4.42147 408.14
290 1 -48.971 0.0446871 403.788 -48.971 4.47214 403.788
11 1 -55.1249 0.0607525 401.368 -55.1249 4.48821 401.368
595 1 -38.3457 4.38969 410.597 -38.3457 4.38969 410.597
1134 1 -60.8588 4.31235 417.062 -60.8588 4.31235 417.062
283 1 -52.366 4.42628 407.576 -52.366 4.42628 407.576
582 1 -46.2057 4.39858 410.036 -46.2057 4.39858 410.036
276 1 -56.8346 0.0563448 403.234 -56.8346 4.4838 403.234
569 1 -54.0659 4.40576 409.471 -54.0659 4.40576 409.471
847 1 -59.1604 4.33592 415.164 -59.1604 4.33592 415.164
556 1 -61.921 4.41399 408.914 -61.921 4.41399 408.914
272 1 -58.5318 0.0382177 405.115 -58.5318 4.46567 405.115
3 1 -59.8529 3.0631 400.344 -59.8529 3.0631 400.344
35 1 -39.398 0.0598099 402.44 -39.398 4.48726 402.44
598 1 -36.645 4.41212 408.702 -36.645 4.41212 408.702
850 1 -57.462 4.3594 413.267 -57.462 4.3594 413.267
304 1 -41.1028 0.0400249 404.346 -41.1028 4.46748 404.346