ITEM: TIMESTEP
0
ITEM: NUMBER OF ATOMS
4630
ITEM: BOX BOUNDS xy xz yz pp pp pp
-5.7540988501800001e+01 1.0056002035000000e+02 0.0000000000000000e+00
0.0000000000000000e+00 4.4274527100805940e+00 0.0000000000000000e+00
3.8000000000000000e+02 5.0000000000000000e+02 0.0000000000000000e+00
ITEM: ATOMS id type x y z xu yu zu
27 1 -42.4419 2.68882 398.215 -42.4419 2.68882 398.215
36 1 -37.0376 1.9374 398.057 -37.0376 1.9374 398.057
31 1 -40.0652 3.35409 398.558 -40.0652 3.35409 398.558
22 1 -45.4969 4.11336 398.755 -45.4969 4.11336 398.755
20 1 -46.2511 1.8999 399.668 -46.2511 1.8999 399.668
40 1 -34.6637 2.60577 398.408 -34.6637 2.60577 398.408
34 1 -37.7758 4.1397 398.96 -37.7758 4.1397 398.96
17 1 -48.5466 1.13463 399.278 -48.5466 1.13463 399.278
9 1 -53.8948 1.81194 399.41 -53.8948 1.81194 399.41
43 1 -32.3768 3.39265 398.813 -32.3768 3.39265 398.813
12 1 -51.6441 2.66839 399.841 -51.6441 2.66839 399.841
5 1 -56.2652 1.19908 399.063 -56.2652 1.19908 399.063
29 1 -40.8544 1.13068 399.467 -40.8544 1.13068 399.467
853 1 -52.6142 3.08338 414.447 -52.6142 3.08338 414.447
873 1 -41.8613 1.60087 414.12 -41.8613 1.60087 414.12
865 1 -45.7279 0.83474 415.695 -45.7279 0.83474 415.695
1174 1 -33.4584 2.27091 416.795 -33.4584 2.27091 416.795
883 1 -36.4815 0.858263 413.962 -36.4815 0.858263 413.962
863 1 -47.2392 2.34299 414.282 -47.2392 2.34299 414.282
315 1 -32.4355 1.82023 402.183 -32.4355 1.82023 402.183
307 1 -37.0997 3.2613 404.74 -37.0997 3.2613 404.74
1150 1 -47.2983 0.79352 417.689 -47.2983 0.79352 417.689
855 1 -51.1039 1.57536 415.86 -51.1039 1.57536 415.86
310 1 -35.529 3.29684 402.756 -35.529 3.29684 402.756
871 1 -42.6464 3.7946 415.116 -42.6464 3.7946 415.116
16 1 -49.32 3.3401 400.194 -49.32 3.3401 400.194
309 1 -35.5824 1.75326 406.154 -35.5824 1.75326 406.154
1156 1 -44.2172 3.75408 417.109 -44.2172 3.75408 417.109
867 1 -44.9429 3.0688 414.699 -44.9429 3.0688 414.699
1159 1 -41.9211 0.0528664 417.526 -41.9211 4.48032 417.526
1168 1 -36.542 3.73914 417.369 -36.542 3.73914 417.369
1170 1 -35.7558 1.54506 416.373 -35.7558 1.54506 416.373
594 1 -36.3676 3.94906 407.149 -36.3676 3.94906 407.149
37 1 -36.2532 2.5958 400.353 -36.2532 2.5958 400.353
851 1 -53.3986 0.848899 415.444 -53.3986 0.848899 415.444
857 1 -50.3194 3.80989 414.863 -50.3194 3.80989 414.863
592 1 -37.1525 1.71686 408.144 -37.1525 1.71686 408.144
849 1 -54.183 3.04165 416.441 -54.183 3.04165 416.441
877 1 -39.5643 2.32667 414.538 -39.5643 2.32667 414.538
1143 1 -51.8886 3.76812 416.857 -51.8886 3.76812 416.857
1140 1 -53.4583 3.72557 418.851 -53.4583 3.72557 418.851
845 1 -56.4772 2.31566 416.025 -56.4772 2.31566 416.025
875 1 -40.3498 0.0930856 415.534 -40.3498 4.52054 415.534
886 1 -34.9102 0.896638 411.972 -34.9102 0.896638 411.972
891 1 -31.8253 3.85402 411.4 -31.8253 3.85402 411.4
39 1 -34.7484 1.09883 401.759 -34.7484 1.09883 401.759
1177 1 -31.9476 0.763693 418.211 -31.9476 0.763693 418.211
1167 1 -37.3283 1.50558 418.364 -37.3283 1.50558 418.364
8 1 -54.7079 4.08329 400.435 -54.7079 4.08329 400.435
869 1 -43.4317 1.5607 416.112 -43.4317 1.5607 416.112
1136 1 -55.7523 2.99893 418.436 -55.7523 2.99893 418.436
1162 1 -40.4109 2.97274 418.94 -40.4109 2.97274 418.94
15 1 -50.1137 1.12247 401.234 -50.1137 1.12247 401.234
280 1 -51.6742 1.09231 403.226 -51.6742 1.09231 403.226
277 1 -53.239 1.06621 405.217 -53.239 1.06621 405.217
273 1 -54.7993 1.02743 407.215 -54.7993 1.02743 407.215
560 1 -56.3646 0.989222 409.211 -56.3646 0.989222 409.211
557 1 100.17 0.949762 411.205 -57.9311 0.949762 411.205
26 1 -42.4317 1.11777 401.473 -42.4317 1.11777 401.473
294 1 -44.0014 1.08825 403.48 -44.0014 1.08825 403.48
291 1 -45.5674 1.05108 405.476 -45.5674 1.05108 405.476
576 1 -47.1316 1.01136 407.469 -47.1316 1.01136 407.469
573 1 -48.6966 0.971637 409.462 -48.6966 0.971637 409.462
570 1 -50.2627 0.931143 411.455 -50.2627 0.931143 411.455
854 1 -51.8301 0.890236 413.449 -51.8301 0.890236 413.449
305 1 -37.8837 1.02951 405.733 -37.8837 1.02951 405.733
589 1 -39.452 0.992136 407.724 -39.452 0.992136 407.724
586 1 -41.0203 0.953929 409.716 -41.0203 0.953929 409.716
872 1 -42.5889 0.914947 411.709 -42.5889 0.914947 411.709
599 1 -33.3388 0.934036 409.983 -33.3388 0.934036 409.983
4 1 -56.2799 4.09459 402.375 -56.2799 4.09459 402.375
268 1 100.276 4.04868 404.395 -57.8246 4.04868 404.395
1152 1 -46.5131 3.02794 416.692 -46.5131 3.02794 416.692
19 1 -47.0454 4.08635 400.676 -47.0454 4.08635 400.676
286 1 -48.6032 4.0495 402.635 -48.6032 4.0495 402.635
282 1 -50.1591 4.01492 404.633 -50.1591 4.01492 404.633
279 1 -51.7225 3.98259 406.628 -51.7225 3.98259 406.628
565 1 -53.2859 3.94497 408.626 -53.2859 3.94497 408.626
563 1 -54.852 3.90632 410.622 -54.852 3.90632 410.622
846 1 -56.4195 3.8667 412.617 -56.4195 3.8667 412.617
32 1 -39.3524 4.08188 400.927 -39.3524 4.08188 400.927
300 1 -40.9202 4.04562 402.908 -40.9202 4.04562 402.908
297 1 -42.4853 4.00812 404.898 -42.4853 4.00812 404.898
293 1 -44.0508 3.9705 406.889 -44.0508 3.9705 406.889
578 1 -45.6166 3.93152 408.882 -45.6166 3.93152 408.882
575 1 -47.1833 3.89173 410.876 -47.1833 3.89173 410.876
860 1 -48.7509 3.85111 412.869 -48.7509 3.85111 412.869
591 1 -37.9373 3.9118 409.14 -37.9373 3.9118 409.14
588 1 -39.5066 3.87351 411.131 -39.5066 3.87351 411.131
874 1 -41.0763 3.83441 413.123 -41.0763 3.83441 413.123
10 1 -53.1983 2.59538 401.82 -53.1983 2.59538 401.82
274 1 -54.7608 2.58191 403.801 -54.7608 2.58191 403.801
271 1 -56.3135 2.53853 405.805 -56.3135 2.53853 405.805
558 1 100.223 2.5004 407.799 -57.878 2.5004 407.799
24 1 -43.975 2.64265 400.126 -43.975 2.64265 400.126
21 1 -45.5324 2.598 402.08 -45.5324 2.598 402.08
288 1 -47.0876 2.55838 404.065 -47.0876 2.55838 404.065
285 1 -48.6469 2.51649 406.055 -48.6469 2.51649 406.055
571 1 -50.21 2.47774 408.047 -50.21 2.47774 408.047
568 1 -51.7744 2.438 410.041 -51.7744 2.438 410.041
852 1 -53.3409 2.39793 412.036 -53.3409 2.39793 412.036
848 1 -54.9088 2.35739 414.03 -54.9088 2.35739 414.03
306 1 -37.8306 2.56887 402.329 -37.8306 2.56887 402.329
302 1 -39.4005 2.53593 404.316 -39.4005 2.53593 404.316
299 1 -40.9675 2.4994 406.309 -40.9675 2.4994 406.309
583 1 -42.5347 2.46185 408.302 -42.5347 2.46185 408.302
581 1 -44.1022 2.42312 410.295 -44.1022 2.42312 410.295
866 1 -45.6704 2.38348 412.289 -45.6704 2.38348 412.289
880 1 -37.9938 2.36585 412.547 -37.9938 2.36585 412.547
312 1 -34.0108 1.78808 404.166 -34.0108 1.78808 404.166
2 1 100.28 1.21606 401.01 -57.8212 1.21606 401.01
13 1 -50.8864 3.31682 402.209 -50.8864 3.31682 402.209
278 1 -52.4562 3.29398 404.213 -52.4562 3.29398 404.213
275 1 -54.0179 3.26073 406.213 -54.0179 3.26073 406.213
562 1 -55.5813 3.22194 408.212 -55.5813 3.22194 408.212
559 1 -57.1478 3.18347 410.207 -57.1478 3.18347 410.207
1166 1 -38.1147 3.69931 419.359 -38.1147 3.69931 419.359
889 1 -32.6115 1.6217 412.394 -32.6115 1.6217 412.394
28 1 -41.6507 3.34716 400.506 -41.6507 3.34716 400.506
296 1 -43.2205 3.31813 402.488 -43.2205 3.31813 402.488
292 1 -44.7857 3.28382 404.48 -44.7857 3.28382 404.48
289 1 -46.3494 3.24516 406.473 -46.3494 3.24516 406.473
574 1 -47.9139 3.20536 408.466 -47.9139 3.20536 408.466
572 1 -49.4795 3.16525 410.459 -49.4795 3.16525 410.459
856 1 -51.0462 3.12446 412.453 -51.0462 3.12446 412.453
303 1 -38.6682 3.22458 406.729 -38.6682 3.22458 406.729
587 1 -40.2362 3.18681 408.72 -40.2362 3.18681 408.72
584 1 -41.8045 3.14824 410.713 -41.8045 3.14824 410.713
870 1 -43.3734 3.1089 412.706 -43.3734 3.1089 412.706
6 1 -55.5017 1.89219 401.37 -55.5017 1.89219 401.37
270 1 -57.0459 1.8542 403.389 -57.0459 1.8542 403.389
890 1 -31.8855 2.30918 414.806 -31.8855 2.30918 414.806
18 1 -47.8202 1.85476 401.648 -47.8202 1.85476 401.648
284 1 -49.3779 1.81935 403.639 -49.3779 1.81935 403.639
281 1 -50.9409 1.78615 405.633 -50.9409 1.78615 405.633
567 1 -52.5041 1.75063 407.628 -52.5041 1.75063 407.628
564 1 -54.0688 1.71198 409.625 -54.0688 1.71198 409.625
561 1 -55.6357 1.673 411.62 -55.6357 1.673 411.62
844 1 -57.2033 1.63251 413.615 -57.2033 1.63251 413.615
33 1 -38.579 1.88799 399.965 -38.579 1.88799 399.965
30 1 -40.1438 1.84765 401.909 -40.1438 1.84765 401.909
298 1 -41.7033 1.81232 403.899 -41.7033 1.81232 403.899
295 1 -43.268 1.77566 405.892 -43.268 1.77566 405.892
580 1 -44.8336 1.73737 407.886 -44.8336 1.73737 407.886
577 1 -46.3999 1.69796 409.879 -46.3999 1.69796 409.879
862 1 -47.967 1.65778 411.872 -47.967 1.65778 411.872
590 1 -38.7219 1.67905 410.135 -38.7219 1.67905 410.135
876 1 -40.2914 1.64034 412.127 -40.2914 1.64034 412.127
1163 1 -39.6248 0.779211 417.944 -39.6248 0.779211 417.944
1153 1 -45.7883 3.71284 419.102 -45.7883 3.71284 419.102
311 1 -34.7961 3.98482 405.16 -34.7961 3.98482 405.16
42 1 -33.1782 1.14094 399.819 -33.1782 1.14094 399.819
1135 1 -56.5371 0.763441 419.434 -56.5371 0.763441 419.434
1171 1 -35.0316 2.23189 418.784 -35.0316 2.23189 418.784
1139 1 -54.2433 1.49024 419.849 -54.2433 1.49024 419.849
601 1 -32.5528 3.16603 408.989 -32.5528 3.16603 408.989
313 1 -33.2212 4.0194 403.17 -33.2212 4.0194 403.17
858 1 -49.535 1.61683 413.866 -49.535 1.61683 413.866
868 1 -44.1581 0.875224 413.702 -44.1581 0.875224 413.702
1147 1 -49.5937 0.0671672 417.273 -49.5937 4.49462 417.273
843 1 100.114 3.82529 414.612 -57.9871 3.82529 414.612
593 1 -36.4234 2.40423 410.556 -36.4234 2.40423 410.556
308 1 -36.3146 1.06479 403.744 -36.3146 1.06479 403.744
861 1 -48.0239 0.108734 415.279 -48.0239 4.53619 415.279
1158 1 -42.7069 2.24623 418.522 -42.7069 2.24623 418.522
884 1 -35.6958 3.09129 412.967 -35.6958 3.09129 412.967
881 1 -37.2672 3.0525 414.958 -37.2672 3.0525 414.958
885 1 -34.9697 3.77826 415.378 -34.9697 3.77826 415.378
859 1 -48.8087 2.30176 416.276 -48.8087 2.30176 416.276
596 1 -34.853 2.44162 408.566 -34.853 2.44162 408.566
879 1 -38.053 0.819091 415.953 -38.053 0.819091 415.953
1172 1 -34.245 0.0377663 417.789 -34.245 4.46522 417.789
1154 1 -45.0027 1.51983 418.105 -45.0027 1.51983 418.105
887 1 -34.1836 1.5838 414.384 -34.1836 1.5838 414.384
597 1 -34.1245 3.1292 410.977 -34.1245 3.1292 410.977
1161 1 -41.1354 2.28679 416.53 -41.1354 2.28679 416.53
1138 1 -54.9676 0.806694 417.438 -54.9676 0.806694 417.438
1149 1 -48.0837 2.98636 418.686 -48.0837 2.98636 418.686
41 1 -33.9556 3.33294 400.78 -33.9556 3.33294 400.78
888 1 -33.3976 3.81659 413.389 -33.3976 3.81659 413.389
1165 1 -38.8388 3.01296 416.949 -38.8388 3.01296 416.949
1141 1 -52.6734 1.53323 417.854 -52.6734 1.53323 417.854
1145 1 -50.3788 2.25984 418.27 -50.3788 2.25984 418.27
600 1 -33.2818 2.47779 406.578 -33.2818 2.47779 406.578
1148 1 -48.8692 0.751562 419.683 -48.8692 0.751562 419.683
882 1 -37.2086 0.17142 411.551 -37.2086 4.59887 411.551
1157 1 -43.4928 0.0119559 419.519 -43.4928 4.43941 419.519
1144 1 -51.164 0.0248708 419.267 -51.164 4.45232 419.267
602 1 -31.7666 0.970246 407.995 -31.7666 0.970246 407.995
1755 1 -31.3579 2.7867 427.431 -31.3579 2.7867 427.431
1460 1 -35.8828 2.87885 423.185 -35.8828 2.87885 423.185
2308 1 -44.6021 3.3073 437.549 -44.6021 3.3073 437.549
2316 1 -39.952 1.89063 434.974 -39.952 1.89063 434.974
2312 1 -42.31 4.03753 437.965 -42.31 4.03753 437.965
1464 1 -33.5867 3.60586 423.605 -33.5867 3.60586 423.605
1461 1 -35.0956 0.685194 422.19 -35.0956 0.685194 422.19
2039 1 -33.7913 3.39257 433.819 -33.7913 3.39257 433.819
2613 1 -35.4343 1.80118 439.216 -35.4343 1.80118 439.216
1467 1 -31.2903 4.33267 424.027 -31.2903 4.33267 424.027
2603 1 -40.8036 2.53168 439.379 -40.8036 2.53168 439.379
1443 1 -45.0648 4.39778 421.512 -45.0648 4.39778 421.512
1748 1 -35.1616 3.5657 425.595 -35.1616 3.5657 425.595
2023 1 -42.2448 1.16085 434.557 -42.2448 1.16085 434.557
2310 1 -43.0954 1.80121 438.962 -43.0954 1.80121 438.962
1151 1 -46.5741 1.47822 420.099 -46.5741 1.47822 420.099
2303 1 -47.6795 0.34085 438.131 -47.6795 0.34085 438.131
2299 1 -49.9721 4.03863 437.716 -49.9721 4.03863 437.716
2033 1 -36.8722 0.428325 434.395 -36.8722 0.428325 434.395
1433 1 -50.4402 0.708813 421.677 -50.4402 0.708813 421.677
1430 1 -52.0115 0.665266 423.671 -52.0115 0.665266 423.671
1426 1 -53.5828 0.621003 425.666 -53.5828 0.621003 425.666
1713 1 -55.1543 0.576181 427.662 -55.1543 0.576181 427.662
1710 1 -56.7258 0.531007 429.657 -56.7258 0.531007 429.657
2330 1 -31.5677 2.57433 437.643 -31.5677 2.57433 437.643
1160 1 -41.197 0.738644 419.936 -41.197 0.738644 419.936
1447 1 -42.7696 0.697368 421.929 -42.7696 0.697368 421.929
1444 1 -44.3422 0.655344 423.921 -44.3422 0.655344 423.921
1730 1 -45.9148 0.612541 425.915 -45.9148 0.612541 425.915
1727 1 -47.4873 0.568972 427.909 -47.4873 0.568972 427.909
1724 1 -49.0594 0.524714 429.903 -49.0594 0.524714 429.903
2008 1 -50.6311 0.479906 431.898 -50.6311 0.479906 431.898
2006 1 -52.2024 0.434736 433.893 -52.2024 0.434736 433.893
1458 1 -36.6699 0.644872 424.18 -36.6699 0.644872 424.18
1743 1 -38.2442 0.603782 426.17 -38.2442 0.603782 426.17
1740 1 -39.8184 0.561875 428.162 -39.8184 0.561875 428.162
2026 1 -41.3921 0.519119 430.154 -41.3921 0.519119 430.154
2022 1 -42.9653 0.475531 432.147 -42.9653 0.475531 432.147
2019 1 -44.5376 0.431187 434.141 -44.5376 0.431187 434.141
2309 1 -43.8166 1.11615 436.551 -43.8166 1.11615 436.551
1137 1 -55.0284 3.68214 420.846 -55.0284 3.68214 420.846
1421 1 -56.5989 3.63789 422.842 -56.5989 3.63789 422.842
1439 1 -47.3598 3.67086 421.095 -47.3598 3.67086 421.095
1435 1 -48.9315 3.62809 423.089 -48.9315 3.62809 423.089
1432 1 -50.5032 3.58454 425.084 -50.5032 3.58454 425.084
1719 1 -52.0749 3.5403 427.079 -52.0749 3.5403 427.079
1716 1 -53.6465 3.4955 429.074 -53.6465 3.4955 429.074
2001 1 -55.218 3.45036 431.069 -55.218 3.45036 431.069
1998 1 -56.7894 3.40509 433.064 -56.7894 3.40509 433.064
2323 1 -35.3662 3.35013 435.809 -35.3662 3.35013 435.809
1453 1 -39.6876 3.65878 421.351 -39.6876 3.65878 421.351
1450 1 -41.2607 3.61753 423.342 -41.2607 3.61753 423.342
1446 1 -42.8339 3.57551 425.335 -42.8339 3.57551 425.335
1732 1 -44.4069 3.5327 427.328 -44.4069 3.5327 427.328
1729 1 -45.9796 3.48912 429.321 -45.9796 3.48912 429.321
2014 1 -47.5519 3.44483 431.316 -47.5519 3.44483 431.316
2011 1 -49.1236 3.39998 433.31 -49.1236 3.39998 433.31
1745 1 -36.7365 3.52474 427.585 -36.7365 3.52474 427.585
1742 1 -38.3111 3.48293 429.576 -38.3111 3.48293 429.576
2028 1 -39.8852 3.44024 431.568 -39.8852 3.44024 431.568
2025 1 -41.4585 3.39667 433.561 -41.4585 3.39667 433.561
1427 1 -53.5199 2.17362 422.259 -53.5199 2.17362 422.259
1424 1 -55.0908 2.12935 424.254 -55.0908 2.12935 424.254
1711 1 -56.662 2.08449 426.249 -56.662 2.08449 426.249
2322 1 -36.1533 1.11479 436.805 -36.1533 1.11479 436.805
1750 1 -33.6537 2.05926 427.01 -33.6537 2.05926 427.01
1155 1 -44.2787 2.20496 420.515 -44.2787 2.20496 420.515
1441 1 -45.8508 2.16295 422.508 -45.8508 2.16295 422.508
1438 1 -47.423 2.12017 424.502 -47.423 2.12017 424.502
1725 1 -48.9951 2.07661 426.496 -48.9951 2.07661 426.496
1722 1 -50.5671 2.03237 428.491 -50.5671 2.03237 428.491
1718 1 -52.1388 1.98758 430.486 -52.1388 1.98758 430.486
2003 1 -53.7102 1.94244 432.481 -53.7102 1.94244 432.481
2000 1 -55.2813 1.89716 434.476 -55.2813 1.89716 434.476
1459 1 -36.605 2.19216 420.774 -36.605 2.19216 420.774
1455 1 -38.1786 2.15171 422.765 -38.1786 2.15171 422.765
1452 1 -39.7523 2.11052 424.756 -39.7523 2.11052 424.756
1737 1 -41.326 2.06854 426.748 -41.326 2.06854 426.748
1735 1 -42.8994 2.02575 428.741 -42.8994 2.02575 428.741
2020 1 -44.4723 1.98216 430.734 -44.4723 1.98216 430.734
2017 1 -46.0447 1.93784 432.728 -46.0447 1.93784 432.728
2034 1 -36.8041 1.97679 430.99 -36.8041 1.97679 430.99
2031 1 -38.3785 1.93417 432.982 -38.3785 1.93417 432.982
2029 1 -39.1654 4.12624 433.978 -39.1654 4.12624 433.978
1146 1 -49.6547 2.94402 420.68 -49.6547 2.94402 420.68
1431 1 -51.2258 2.90086 422.674 -51.2258 2.90086 422.674
1428 1 -52.7971 2.85694 424.669 -52.7971 2.85694 424.669
1715 1 -54.3685 2.81238 426.664 -54.3685 2.81238 426.664
1712 1 -55.94 2.76735 428.659 -55.94 2.76735 428.659
1708 1 100.589 2.72208 430.655 -57.5115 2.72208 430.655
1747 1 -35.2291 2.01847 428.999 -35.2291 2.01847 428.999
1449 1 -41.9833 2.93182 420.932 -41.9833 2.93182 420.932
1445 1 -43.5559 2.89018 422.925 -43.5559 2.89018 422.925
1442 1 -45.1285 2.84777 424.918 -45.1285 2.84777 424.918
1728 1 -46.7011 2.80458 426.912 -46.7011 2.80458 426.912
1726 1 -48.2734 2.76065 428.906 -48.2734 2.76065 428.906
2010 1 -49.8453 2.71609 430.9 -49.8453 2.71609 430.9
2007 1 -51.4169 2.67108 432.895 -51.4169 2.67108 432.895
1456 1 -37.4571 2.83815 425.175 -37.4571 2.83815 425.175
1741 1 -39.0313 2.79666 427.166 -39.0313 2.79666 427.166
1738 1 -40.6053 2.75433 429.158 -40.6053 2.75433 429.158
2024 1 -42.1788 2.71115 431.151 -42.1788 2.71115 431.151
2021 1 -43.7516 2.66717 433.144 -43.7516 2.66717 433.144
2035 1 -36.085 2.66344 433.4 -36.085 2.66344 433.4
1754 1 -32.0781 2.09923 425.021 -32.0781 2.09923 425.021
1423 1 -55.8136 1.44638 421.844 -55.8136 1.44638 421.844
1420 1 -57.3843 1.40178 423.839 -57.3843 1.40178 423.839
2044 1 -30.7089 1.92822 433.244 -30.7089 1.92822 433.244
1437 1 -48.1456 1.43585 422.092 -48.1456 1.43585 422.092
1434 1 -49.7173 1.39269 424.087 -49.7173 1.39269 424.087
1721 1 -51.289 1.34877 426.081 -51.289 1.34877 426.081
1717 1 -52.8607 1.30423 428.076 -52.8607 1.30423 428.076
1714 1 -54.4323 1.25923 430.071 -54.4323 1.25923 430.071
1999 1 -56.0037 1.214 432.067 -56.0037 1.214 432.067
1997 1 -57.575 1.16874 434.062 -57.575 1.16874 434.062
1164 1 -38.9011 1.46541 420.355 -38.9011 1.46541 420.355
1451 1 -40.4742 1.42452 422.346 -40.4742 1.42452 422.346
1448 1 -42.0473 1.38289 424.338 -42.0473 1.38289 424.338
1734 1 -43.6205 1.34048 426.331 -43.6205 1.34048 426.331
1731 1 -45.1933 1.29728 428.324 -45.1933 1.29728 428.324
2016 1 -46.7658 1.25333 430.318 -46.7658 1.25333 430.318
2012 1 -48.3378 1.20874 432.313 -48.3378 1.20874 432.313
2009 1 -49.9092 1.16368 434.308 -49.9092 1.16368 434.308
1746 1 -35.9491 1.33159 426.59 -35.9491 1.33159 426.59
1744 1 -37.5238 1.29022 428.58 -37.5238 1.29022 428.58
2030 1 -39.0982 1.24797 430.572 -39.0982 1.24797 430.572
2027 1 -40.6719 1.20483 432.564 -40.6719 1.20483 432.564
2325 1 -34.5789 1.15775 434.814 -34.5789 1.15775 434.814
1749 1 -34.4414 4.2527 428.004 -34.4414 4.2527 428.004
1425 1 -54.3053 4.3653 423.257 -54.3053 4.3653 423.257
1736 1 -42.1127 4.26097 427.744 -42.1127 4.26097 427.744
1142 1 -51.9492 2.21714 420.264 -51.9492 2.21714 420.264
1720 1 -51.353 4.22376 429.488 -51.353 4.22376 429.488
2005 1 -52.9245 4.17876 431.483 -52.9245 4.17876 431.483
2002 1 -54.4958 4.13353 433.479 -54.4958 4.13353 433.479
1169 1 -35.8182 4.42584 419.779 -35.8182 4.42584 419.779
1723 1 -49.7811 4.26829 427.493 -49.7811 4.26829 427.493
1440 1 -46.6369 4.35538 423.505 -46.6369 4.35538 423.505
1733 1 -43.6859 4.21778 429.737 -43.6859 4.21778 429.737
2018 1 -45.2586 4.17381 431.731 -45.2586 4.17381 431.731
2015 1 -46.8306 4.12918 433.725 -46.8306 4.12918 433.725
2036 1 -36.0167 4.21147 429.995 -36.0167 4.21147 429.995
2032 1 -37.5914 4.16932 431.986 -37.5914 4.16932 431.986
2326 1 -33.8606 1.84465 437.224 -33.8606 1.84465 437.224
1752 1 -32.8659 4.29307 426.015 -32.8659 4.29307 426.015
1457 1 -37.3918 4.38575 421.77 -37.3918 4.38575 421.77
2043 1 -31.4271 1.24054 430.834 -31.4271 1.24054 430.834
2286 1 -56.8521 1.85196 436.472 -56.8521 1.85196 436.472
2319 1 -37.7262 1.07082 438.798 -37.7262 1.07082 438.798
1436 1 -48.2091 4.31221 425.499 -48.2091 4.31221 425.499
1422 1 -55.8764 4.32071 425.252 -55.8764 4.32071 425.252
1173 1 -33.5215 0.724795 420.2 -33.5215 0.724795 420.2
2293 1 -53.05 1.07297 438.299 -53.05 1.07297 438.299
2289 1 -55.3435 0.344183 437.884 -55.3435 0.344183 437.884
2295 1 -51.5416 3.99316 439.711 -51.5416 3.99316 439.711
1465 1 -32.7992 1.41194 422.611 -32.7992 1.41194 422.611
2315 1 -40.0181 0.340426 438.381 -40.0181 0.340426 438.381
2331 1 -31.4972 4.12147 434.238 -31.4972 4.12147 434.238
2297 1 -50.757 1.80216 438.713 -50.757 1.80216 438.713
2324 1 -34.6477 4.03678 438.219 -34.6477 4.03678 438.219
2306 1 -45.3873 1.07089 438.546 -45.3873 1.07089 438.546
2285 1 -56.9132 0.299238 439.879 -56.9132 0.299238 439.879
1462 1 -34.3741 1.37215 424.6 -34.3741 1.37215 424.6
1751 1 -32.9341 2.74653 429.419 -32.9341 2.74653 429.419
2329 1 -32.2853 1.887 435.233 -32.2853 1.887 435.233
2042 1 -32.2153 3.43395 431.829 -32.2153 3.43395 431.829
2041 1 -33.0034 1.19966 432.824 -33.0034 1.19966 432.824
2593 1 -46.1721 3.26185 439.544 -46.1721 3.26185 439.544
2328 1 -32.3553 0.339319 438.638 -32.3553 0.339319 438.638
2301 1 -48.4643 2.5318 439.129 -48.4643 2.5318 439.129
1466 1 -32.0118 3.6453 421.616 -32.0118 3.6453 421.616
2298 1 -50.6947 3.35476 435.305 -50.6947 3.35476 435.305
2321 1 -36.9399 3.30665 437.802 -36.9399 3.30665 437.802
2313 1 -41.5243 1.84626 436.968 -41.5243 1.84626 436.968
2294 1 -52.2651 3.30937 437.301 -52.2651 3.30937 437.301
2304 1 -46.8944 2.5773 437.133 -46.8944 2.5773 437.133
2300 1 -49.187 1.84763 436.718 -49.187 1.84763 436.718
2290 1 -54.5584 2.5805 436.886 -54.5584 2.5805 436.886
2318 1 -38.4458 0.384818 436.388 -38.4458 0.384818 436.388
2327 1 -33.0731 4.07969 436.228 -33.0731 4.07969 436.228
2004 1 -52.9879 2.62581 434.891 -52.9879 2.62581 434.891
2013 1 -47.6163 1.89294 434.723 -47.6163 1.89294 434.723
2288 1 -56.0668 4.08826 435.474 -56.0668 4.08826 435.474
2037 1 -35.2975 0.470853 432.404 -35.2975 0.470853 432.404
1739 1 -40.5392 4.30336 425.752 -40.5392 4.30336 425.752
1753 1 -32.146 0.552995 428.425 -32.146 0.552995 428.425
2307 1 -45.3235 2.6225 435.138 -45.3235 2.6225 435.138
2314 1 -40.7383 4.08227 435.971 -40.7383 4.08227 435.971
2040 1 -33.722 0.512391 430.414 -33.722 0.512391 430.414
2320 1 -37.6592 2.62042 435.391 -37.6592 2.62042 435.391
2292 1 -53.7732 0.38942 435.889 -53.7732 0.38942 435.889
2311 1 -43.0309 3.35231 435.554 -43.0309 3.35231 435.554
2302 1 -48.4018 4.08405 435.72 -48.4018 4.08405 435.72
2296 1 -51.48 1.11834 436.303 -51.48 1.11834 436.303
1463 1 -34.3086 2.91881 421.195 -34.3086 2.91881 421.195
2287 1 -56.1284 2.53539 438.882 -56.1284 2.53539 438.882
2291 1 -53.8348 3.26406 439.296 -53.8348 3.26406 439.296
2317 1 -39.2321 2.57645 437.384 -39.2321 2.57645 437.384
2038 1 -34.5099 2.70547 431.409 -34.5099 2.70547 431.409
2305 1 -46.1091 0.386229 436.136 -46.1091 0.386229 436.136
2332 1 -30.7797 0.381584 436.648 -30.7797 0.381584 436.648
1709 1 100.653 4.27564 427.247 -57.4477 4.27564 427.247
1468 1 -31.2245 1.45103 420.622 -31.2245 1.45103 420.622
1454 1 -38.9654 4.34494 423.761 -38.9654 4.34494 423.761
1429 1 -52.7345 4.40921 421.262 -52.7345 4.40921 421.262
1133 1 -57.322 2.95516 420.431 -57.322 2.95516 420.431
1175 1 -32.7345 2.95806 419.206 -32.7345 2.95806 419.206
2616 1 -33.2102 0.98212 443.04 -33.2102 0.98212 443.04
2901 1 -34.7803 0.936968 445.035 -34.7803 0.936968 445.035
2907 1 -31.7054 3.90434 444.455 -31.7054 3.90434 444.455
3194 1 -32.5532 0.116757 448.862 -32.5532 0.116757 448.862
2587 1 -49.2489 0.295282 440.126 -49.2489 0.295282 440.126
2597 1 -43.8803 3.99222 439.96 -43.8803 3.99222 439.96
2584 1 -50.8172 0.249775 442.122 -50.8172 0.249775 442.122
2581 1 -52.3844 0.204582 444.118 -52.3844 0.204582 444.118
2868 1 -53.9508 0.15995 446.114 -53.9508 0.15995 446.114
2865 1 -55.5163 0.116104 448.109 -55.5163 0.116104 448.109
2601 1 -41.5888 0.295328 440.376 -41.5888 0.295328 440.376
2598 1 -43.1578 0.249766 442.371 -43.1578 0.249766 442.371
2885 1 -44.7252 0.204029 444.368 -44.7252 0.204029 444.368
2882 1 -46.2909 0.158418 446.364 -46.2909 0.158418 446.364
2879 1 -47.8551 0.113232 448.361 -47.8551 0.113232 448.361
2612 1 -35.5008 0.251277 442.623 -35.5008 0.251277 442.623
2898 1 -37.0702 0.20589 444.618 -37.0702 0.20589 444.618
2895 1 -38.6372 0.160024 446.614 -38.6372 0.160024 446.614
3180 1 -40.2019 0.114064 448.612 -40.2019 0.114064 448.612
2576 1 -55.4038 3.21905 441.292 -55.4038 3.21905 441.292
2574 1 -56.9721 3.17456 443.287 -56.9721 3.17456 443.287
2589 1 -47.7409 3.21621 441.54 -47.7409 3.21621 441.54
2586 1 -49.3084 3.17062 443.536 -49.3084 3.17062 443.536
2874 1 -50.8747 3.12537 445.532 -50.8747 3.12537 445.532
2871 1 -52.4399 3.08069 447.528 -52.4399 3.08069 447.528
3155 1 -54.0042 3.03683 449.523 -54.0042 3.03683 449.523
2607 1 -38.5121 3.26222 439.795 -38.5121 3.26222 439.795
2604 1 -40.0824 3.21706 441.79 -40.0824 3.21706 441.79
2600 1 -41.6509 3.17142 443.786 -41.6509 3.17142 443.786
2887 1 -43.2175 3.12564 445.782 -43.2175 3.12564 445.782
2884 1 -44.7822 3.08004 447.779 -44.7822 3.08004 447.779
3168 1 -46.3453 3.03496 449.776 -46.3453 3.03496 449.776
2900 1 -35.5644 3.12784 446.033 -35.5644 3.12784 446.033
2897 1 -37.1305 3.08184 448.029 -37.1305 3.08184 448.029
2582 1 -52.326 1.75675 440.709 -52.326 1.75675 440.709
2579 1 -53.8941 1.71165 442.705 -53.8941 1.71165 442.705
2866 1 -55.4615 1.6671 444.7 -55.4615 1.6671 444.7
2578 1 -54.6194 1.02778 440.294 -54.6194 1.02778 440.294
2595 1 -44.6649 1.7557 440.958 -44.6649 1.7557 440.958
2592 1 -46.233 1.71 442.954 -46.233 1.71 442.954
2880 1 -47.7996 1.66438 444.95 -47.7996 1.66438 444.95
2877 1 -49.3649 1.61912 446.946 -49.3649 1.61912 446.946
2873 1 -50.9289 1.57449 448.942 -50.9289 1.57449 448.942
2609 1 -37.0063 1.7567 441.209 -37.0063 1.7567 441.209
2606 1 -38.5762 1.71143 443.204 -38.5762 1.71143 443.204
2892 1 -40.144 1.6657 445.2 -40.144 1.6657 445.2
2890 1 -41.7097 1.61984 447.197 -41.7097 1.61984 447.197
3174 1 -43.2733 1.57422 449.194 -43.2733 1.57422 449.194
2618 1 -32.4241 3.21805 442.044 -32.4241 3.21805 442.044
2585 1 -50.0332 2.48623 441.124 -50.0332 2.48623 441.124
2583 1 -51.6009 2.44085 443.12 -51.6009 2.44085 443.12
2870 1 -53.1677 2.39591 445.116 -53.1677 2.39591 445.116
2867 1 -54.7336 2.35164 447.112 -54.7336 2.35164 447.112
2863 1 -56.2989 2.30827 449.107 -56.2989 2.30827 449.107
2599 1 -42.3735 2.48631 441.374 -42.3735 2.48631 441.374
2596 1 -43.9417 2.44063 443.369 -43.9417 2.44063 443.369
2883 1 -45.5083 2.39492 445.366 -45.5083 2.39492 445.366
2881 1 -47.0732 2.34948 447.363 -47.0732 2.34948 447.363
3164 1 -48.6367 2.30461 449.359 -48.6367 2.30461 449.359
2610 1 -36.2858 2.44239 443.62 -36.2858 2.44239 443.62
2896 1 -37.854 2.39672 445.616 -37.854 2.39672 445.616
2893 1 -39.4198 2.35076 447.613 -39.4198 2.35076 447.613
3178 1 -40.9833 2.3049 449.611 -40.9833 2.3049 449.611
2575 1 -56.188 0.983001 442.29 -56.188 0.983001 442.29
2591 1 -46.9567 1.02531 440.542 -46.9567 1.02531 440.542
2588 1 -48.5248 0.979665 442.538 -48.5248 0.979665 442.538
2876 1 -50.0917 0.934211 444.534 -50.0917 0.934211 444.534
2872 1 -51.6574 0.889213 446.53 -51.6574 0.889213 446.53
2869 1 -53.2221 0.844916 448.526 -53.2221 0.844916 448.526
2605 1 -39.2975 1.02599 440.792 -39.2975 1.02599 440.792
2602 1 -40.8669 0.980551 442.788 -40.8669 0.980551 442.788
2889 1 -42.4344 0.9348 444.784 -42.4344 0.9348 444.784
2886 1 -44 0.889068 446.781 -44 0.889068 446.781
3170 1 -45.5639 0.843689 448.778 -45.5639 0.843689 448.778
2899 1 -36.3478 0.891146 447.031 -36.3478 0.891146 447.031
3184 1 -37.9126 0.84507 449.028 -37.9126 0.84507 449.028
2580 1 -53.1102 3.94788 441.707 -53.1102 3.94788 441.707
2577 1 -54.6779 3.90302 443.703 -54.6779 3.90302 443.703
2864 1 -56.2449 3.85881 445.698 -56.2449 3.85881 445.698
2862 1 -57.0282 1.62329 446.696 -57.0282 1.62329 446.696
2594 1 -45.4491 3.94658 441.956 -45.4491 3.94658 441.956
2590 1 -47.0165 3.90089 443.952 -47.0165 3.90089 443.952
2878 1 -48.5824 3.85542 445.948 -48.5824 3.85542 445.948
2875 1 -50.1471 3.81044 447.944 -50.1471 3.81044 447.944
3159 1 -51.7106 3.7662 449.94 -51.7106 3.7662 449.94
2611 1 -36.2206 3.99278 440.212 -36.2206 3.99278 440.212
2608 1 -37.7915 3.94787 442.206 -37.7915 3.94787 442.206
2894 1 -39.3604 3.90233 444.202 -39.3604 3.90233 444.202
2891 1 -40.9271 3.85649 446.198 -40.9271 3.85649 446.198
2888 1 -42.4917 3.8107 448.195 -42.4917 3.8107 448.195
2904 1 -33.275 3.859 446.449 -33.275 3.859 446.449
2621 1 -30.8503 3.26157 440.052 -30.8503 3.26157 440.052
2617 1 -33.1424 2.53145 439.634 -33.1424 2.53145 439.634
2614 1 -34.7152 2.48741 441.626 -34.7152 2.48741 441.626
2908 1 -30.9859 0.162739 446.866 -30.9859 0.162739 446.866
2619 1 -31.6375 1.02624 441.048 -31.6375 1.02624 441.048
2906 1 -31.77 2.35356 447.864 -31.77 2.35356 447.864
2905 1 -32.4906 1.66806 445.452 -32.4906 1.66806 445.452
2620 1 -30.9195 1.7129 443.458 -30.9195 1.7129 443.458
3190 1 -34.8417 3.813 448.446 -34.8417 3.813 448.446
2902 1 -34.0587 1.62233 447.447 -34.0587 1.62233 447.447
2903 1 -33.9956 3.17338 444.037 -33.9956 3.17338 444.037
2615 1 -33.9291 0.295839 440.63 -33.9291 0.295839 440.63
2909 1 -30.201 2.39914 445.869 -30.201 2.39914 445.869
14 1 -50.9228 0.46616 398.934 -50.9228 4.89361 398.934
7 1 -55.3735 3.42119 398.226 -55.3735 3.42119 398.226
25 1 -43.192 0.462855 399.115 -43.192 4.89031 399.115
38 1 -35.4478 0.382811 399.317 -35.4478 4.81026 399.317
23 1 -44.7491 0.407451 401.095 -44.7491 4.8349 401.095
287 1 -47.8671 0.322643 405.059 -47.8671 4.7501 405.059
878 1 -38.779 0.13262 413.542 -38.779 4.56007 413.542
579 1 -44.8862 0.189697 411.292 -44.8862 4.61715 411.292
585 1 -41.7509 0.267154 407.305 -41.7509 4.69461 407.305
290 1 -46.3094 0.364413 403.072 -46.3094 4.79187 403.072
11 1 -52.4242 0.403687 400.869 -52.4242 4.83114 400.869
595 1 -35.6383 0.209354 409.561 -35.6383 4.63681 409.561
1134 1 -57.2615 0.0805507 417.023 -57.2615 4.508 417.023
283 1 -49.4284 0.283113 407.05 -49.4284 4.71057 407.05
582 1 -43.3184 0.228914 409.299 -43.3184 4.65637 409.299
276 1 -53.9885 0.382597 402.819 -53.9885 4.81005 402.819
569 1 -50.9919 0.244175 409.044 -50.9919 4.67163 409.044
847 1 -55.6929 0.122965 415.028 -55.6929 4.55042 415.028
272 1 -55.5366 0.34596 404.807 -55.5366 4.77341 404.807
3 1 -57.1186 3.42423 400.007 -57.1186 3.42423 400.007
35 1 -37.0357 0.368151 401.319 -37.0357 4.7956 401.319
598 1 -34.0674 0.246167 407.572 -34.0674 4.67362 407.572
850 1 -54.1247 0.16404 413.033 -54.1247 4.59149 413.033
304 1 -38.6132 0.340557 403.318 -38.6132 4.76801 403.318
301 1 -40.1831 0.304472 405.313 -40.1831 4.73192 405.313
269 1 -57.0957 0.305899 406.804 -57.0957 4.73335 406.804
314 1 -32.4953 0.281813 405.584 -32.4953 4.70927 405.584