ITEM: TIMESTEP
0
ITEM: NUMBER OF ATOMS
4630
ITEM: BOX BOUNDS xy xz yz pp pp pp
-6.0740988501799997e+01 1.0376002035000000e+02 0.0000000000000000e+00
0.0000000000000000e+00 4.4274527100805940e+00 0.0000000000000000e+00
3.8000000000000000e+02 5.0000000000000000e+02 0.0000000000000000e+00
ITEM: ATOMS id type x y z xu yu zu
27 1 -43.817 2.54096 398.764 -43.817 2.54096 398.764
36 1 -38.3676 1.79426 398.816 -38.3676 1.79426 398.816
31 1 -41.4503 3.21577 399.201 -41.4503 3.21577 399.201
22 1 -46.9178 3.96937 399.183 -46.9178 3.96937 399.183
20 1 -47.7281 1.7535 400.058 -47.7281 1.7535 400.058
40 1 -36.0041 2.47165 399.258 -36.0041 2.47165 399.258
34 1 -39.1585 3.99516 399.681 -39.1585 3.99516 399.681
17 1 -50.0264 0.992447 399.589 -50.0264 0.992447 399.589
9 1 -55.4268 1.67148 399.511 -55.4268 1.67148 399.511
43 1 -33.7151 3.25233 399.741 -33.7151 3.25233 399.741
12 1 -53.1701 2.51465 400.019 -53.1701 2.51465 400.019
5 1 -57.7865 1.04204 399.063 -57.7865 1.04204 399.063
29 1 -42.2828 0.990268 400.075 -42.2828 0.990268 400.075
853 1 -54.7631 2.98229 414.485 -54.7631 2.98229 414.485
873 1 -43.9008 1.5009 414.588 -43.9008 1.5009 414.588
865 1 -47.8638 0.739799 416.001 -47.8638 0.739799 416.001
1174 1 -35.5337 2.18366 417.575 -35.5337 2.18366 417.575
883 1 -38.4692 0.759803 414.643 -38.4692 0.759803 414.643
863 1 -49.3325 2.2421 414.536 -49.3325 2.2421 414.536
315 1 -33.9138 1.69133 403.092 -33.9138 1.69133 403.092
307 1 -38.717 3.13356 405.455 -38.717 3.13356 405.455
1150 1 -49.5266 0.706379 417.919 -49.5266 0.706379 417.919
855 1 -53.2947 1.48028 415.949 -53.2947 1.48028 415.949
310 1 -37.0521 3.16523 403.543 -37.0521 3.16523 403.543
871 1 -44.7324 3.69813 415.547 -44.7324 3.69813 415.547
16 1 -50.8477 3.19524 400.468 -50.8477 3.19524 400.468
309 1 -37.2464 1.63092 406.919 -37.2464 1.63092 406.919
1156 1 -46.3955 3.66498 417.465 -46.3955 3.66498 417.465
867 1 -47.0324 2.97014 415.042 -47.0324 2.97014 415.042
1159 1 -44.0959 4.39319 417.971 -44.0959 4.39319 417.971
1168 1 -38.6652 3.6527 418.026 -38.6652 3.6527 418.026
1170 1 -37.8333 1.45535 417.067 -37.8333 1.45535 417.067
594 1 -38.0786 3.82888 407.877 -38.0786 3.82888 407.877
37 1 -37.6842 2.46162 401.131 -37.6842 2.46162 401.131
851 1 -55.5943 0.751988 415.444 -55.5943 0.751988 415.444
857 1 -52.4635 3.71073 414.99 -52.4635 3.71073 414.99
592 1 -38.9105 1.59905 408.835 -38.9105 1.59905 408.835
849 1 -56.4254 2.9491 416.404 -56.4254 2.9491 416.404
877 1 -41.6008 2.22898 415.094 -41.6008 2.22898 415.094
1143 1 -54.1258 3.67727 416.909 -54.1258 3.67727 416.909
1140 1 -55.788 3.6437 418.827 -55.788 3.6437 418.827
845 1 -58.7251 2.22136 415.899 -58.7251 2.22136 415.899
875 1 -42.4326 4.42625 416.053 -42.4326 4.42625 416.053
886 1 -36.8053 0.792322 412.726 -36.8053 0.792322 412.726
891 1 -33.6728 3.74985 412.277 -33.6728 3.74985 412.277
39 1 -36.224 0.964472 402.58 -36.224 0.964472 402.58
1177 1 -34.0663 0.682043 419.042 -34.0663 0.682043 419.042
1167 1 -39.497 1.42253 418.984 -39.497 1.42253 418.984
8 1 -56.2861 3.93803 400.495 -56.2861 3.93803 400.495
869 1 -45.564 1.46786 416.506 -45.564 1.46786 416.506
1136 1 -58.0875 2.91564 418.322 -58.0875 2.91564 418.322
1162 1 -42.6281 2.89124 419.436 -42.6281 2.89124 419.436
15 1 -51.6902 0.980017 401.47 -51.6902 0.980017 401.47
280 1 -53.3517 0.952011 403.382 -53.3517 0.952011 403.382
277 1 -55.0178 0.930964 405.294 -55.0178 0.930964 405.294
273 1 -56.6765 0.898015 407.215 -56.6765 0.898015 407.215
560 1 -58.3381 0.865623 409.134 -58.3381 0.865623 409.134
557 1 -60.0008 0.833301 411.052 -60.0008 0.833301 411.052
26 1 -43.9555 0.979756 402.004 -43.9555 0.979756 402.004
294 1 -45.6221 0.952537 403.935 -45.6221 0.952537 403.935
291 1 -47.2849 0.918693 405.855 -47.2849 0.918693 405.855
576 1 -48.9464 0.884467 407.772 -48.9464 0.884467 407.772
573 1 -50.6083 0.851589 409.689 -50.6083 0.851589 409.689
570 1 -52.2699 0.818411 411.607 -52.2699 0.818411 411.607
854 1 -53.9319 0.785134 413.526 -53.9319 0.785134 413.526
305 1 -39.5483 0.903988 406.411 -39.5483 0.903988 406.411
589 1 -41.2115 0.871433 408.329 -41.2115 0.871433 408.329
586 1 -42.8746 0.838691 410.247 -42.8746 0.838691 410.247
872 1 -44.5378 0.805883 412.165 -44.5378 0.805883 412.165
599 1 -35.141 0.824462 410.81 -35.141 0.824462 410.81
1132 1 -60.387 2.18786 417.818 -60.387 2.18786 417.818
4 1 -57.9678 3.94895 402.351 -57.9678 3.94895 402.351
268 1 -59.613 3.90587 404.291 -59.613 3.90587 404.291
1152 1 -48.6952 2.93684 416.96 -48.6952 2.93684 416.96
19 1 -48.5711 3.93962 401.024 -48.5711 3.93962 401.024
286 1 -50.2256 3.90734 402.914 -50.2256 3.90734 402.914
282 1 -51.8826 3.8788 404.837 -51.8826 3.8788 404.837
279 1 -53.5459 3.85272 406.756 -53.5459 3.85272 406.756
565 1 -55.2068 3.82156 408.677 -55.2068 3.82156 408.677
563 1 -56.8688 3.78943 410.597 -56.8688 3.78943 410.597
846 1 -58.5315 3.75722 412.516 -58.5315 3.75722 412.516
32 1 -40.8267 3.94078 401.579 -40.8267 3.94078 401.579
300 1 -42.4908 3.90955 403.486 -42.4908 3.90955 403.486
297 1 -44.1526 3.87671 405.402 -44.1526 3.87671 405.402
293 1 -45.8144 3.84391 407.319 -45.8144 3.84391 407.319
578 1 -47.4766 3.81066 409.237 -47.4766 3.81066 409.237
575 1 -49.139 3.77758 411.154 -49.139 3.77758 411.154
860 1 -50.8012 3.74423 413.072 -50.8012 3.74423 413.072
591 1 -39.7424 3.79653 409.794 -39.7424 3.79653 409.794
588 1 -41.4058 3.76387 411.711 -41.4058 3.76387 411.711
874 1 -43.0691 3.73107 413.629 -43.0691 3.73107 413.629
10 1 -54.8254 2.44648 401.924 -54.8254 2.44648 401.924
274 1 -56.4934 2.43955 403.826 -56.4934 2.43955 403.826
271 1 -58.1461 2.40238 405.752 -58.1461 2.40238 405.752
558 1 -59.8076 2.3695 407.671 -59.8076 2.3695 407.671
24 1 -45.4508 2.49294 400.597 -45.4508 2.49294 400.597
21 1 -47.1041 2.45496 402.48 -47.1041 2.45496 402.48
288 1 -48.7573 2.41944 404.393 -48.7573 2.41944 404.393
285 1 -50.4159 2.38384 406.309 -50.4159 2.38384 406.309
571 1 -52.0774 2.35228 408.224 -52.0774 2.35228 408.224
568 1 -53.7385 2.31978 410.142 -53.7385 2.31978 410.142
852 1 -55.4003 2.287 412.061 -55.4003 2.287 412.061
848 1 -57.0628 2.25435 413.98 -57.0628 2.25435 413.98
306 1 -39.3545 2.43557 403.031 -39.3545 2.43557 403.031
302 1 -41.0188 2.40565 404.945 -41.0188 2.40565 404.945
299 1 -42.6813 2.37354 406.863 -42.6813 2.37354 406.863
583 1 -44.344 2.34107 408.782 -44.344 2.34107 408.782
581 1 -46.0069 2.30826 410.7 -46.0069 2.30826 410.7
866 1 -47.6698 2.27534 412.618 -47.6698 2.27534 412.618
880 1 -39.9373 2.26178 413.177 -39.9373 2.26178 413.177
312 1 -35.5812 1.66196 405.003 -35.5812 1.66196 405.003
2 1 -59.4576 1.05408 400.922 -59.4576 1.05408 400.922
13 1 -52.5128 3.17557 402.405 -52.5128 3.17557 402.405
278 1 -54.1843 3.15586 404.33 -54.1843 3.15586 404.33
275 1 -55.8462 3.12847 406.252 -55.8462 3.12847 406.252
562 1 -57.5067 3.09534 408.174 -57.5067 3.09534 408.174
559 1 -59.1694 3.06324 410.093 -59.1694 3.06324 410.093
1166 1 -40.3288 3.61976 419.943 -40.3288 3.61976 419.943
889 1 -34.505 1.52016 413.235 -34.505 1.52016 413.235
28 1 -43.1276 3.20793 401.076 -43.1276 3.20793 401.076
296 1 -44.7933 3.18072 402.98 -44.7933 3.18072 402.98
292 1 -46.4547 3.14956 404.896 -46.4547 3.14956 404.896
289 1 -48.1155 3.11535 406.814 -48.1155 3.11535 406.814
574 1 -49.7773 3.08182 408.731 -49.7773 3.08182 408.731
572 1 -51.4391 3.04884 410.648 -51.4391 3.04884 410.648
856 1 -53.1009 3.01549 412.567 -53.1009 3.01549 412.567
303 1 -40.3803 3.10135 407.37 -40.3803 3.10135 407.37
587 1 -42.0432 3.06874 409.288 -42.0432 3.06874 409.288
584 1 -43.7062 3.036 411.205 -43.7062 3.036 411.205
870 1 -45.3694 3.00317 413.123 -45.3694 3.00317 413.123
6 1 -57.1348 1.74493 401.39 -57.1348 1.74493 401.39
270 1 -58.7852 1.71055 403.324 -58.7852 1.71055 403.324
267 1 -60.4442 1.67515 405.248 -60.4442 1.67515 405.248
890 1 -33.8694 2.21596 415.659 -33.8694 2.21596 415.659
18 1 -49.3929 1.71049 401.967 -49.3929 1.71049 401.967
284 1 -51.0512 1.68044 403.883 -51.0512 1.68044 403.883
281 1 -52.7148 1.65305 405.8 -52.7148 1.65305 405.8
567 1 -54.3766 1.62403 407.717 -54.3766 1.62403 407.717
564 1 -56.0377 1.59177 409.638 -56.0377 1.59177 409.638
561 1 -57.7002 1.55968 411.557 -57.7002 1.55968 411.557
844 1 -59.3627 1.52718 413.475 -59.3627 1.52718 413.475
33 1 -40.008 1.74453 400.645 -40.008 1.74453 400.645
30 1 -41.6656 1.70874 402.521 -41.6656 1.70874 402.521
298 1 -43.322 1.67867 404.44 -43.322 1.67867 404.44
295 1 -44.9834 1.64662 406.359 -44.9834 1.64662 406.359
580 1 -46.6454 1.61348 408.278 -46.6454 1.61348 408.278
577 1 -48.3078 1.58035 410.195 -48.3078 1.58035 410.195
862 1 -49.9701 1.5472 412.113 -49.9701 1.5472 412.113
590 1 -40.5741 1.56652 410.753 -40.5741 1.56652 410.753
876 1 -42.2374 1.53376 412.67 -42.2374 1.53376 412.67
1163 1 -41.7964 0.69408 418.477 -41.7964 0.69408 418.477
1153 1 -48.0584 3.63158 419.383 -48.0584 3.63158 419.383
311 1 -36.4132 3.86057 405.961 -36.4132 3.86057 405.961
42 1 -34.5633 1.00152 400.706 -34.5633 1.00152 400.706
1135 1 -58.9184 0.685043 419.282 -58.9184 0.685043 419.282
1171 1 -37.1977 2.15104 419.492 -37.1977 2.15104 419.492
1139 1 -56.619 1.4131 419.787 -56.619 1.4131 419.787
601 1 -34.3086 3.05405 409.852 -34.3086 3.05405 409.852
313 1 -34.745 3.89194 404.044 -34.745 3.89194 404.044
858 1 -51.6323 1.51374 414.031 -51.6323 1.51374 414.031
868 1 -46.2009 0.77297 414.083 -46.2009 0.77297 414.083
1147 1 -51.8263 4.40558 417.414 -51.8263 4.40558 417.414
843 1 -60.1939 3.72439 414.435 -60.1939 3.72439 414.435
593 1 -38.2737 2.2944 411.26 -38.2737 2.2944 411.26
308 1 -37.8844 0.935144 404.495 -37.8844 0.935144 404.495
861 1 -50.1637 0.0116578 415.495 -50.1637 4.43911 415.495
1158 1 -44.9274 2.16285 418.93 -44.9274 2.16285 418.93
884 1 -37.6373 2.98982 413.684 -37.6373 2.98982 413.684
881 1 -39.301 2.95718 415.601 -39.301 2.95718 415.601
885 1 -37.0013 3.6854 416.109 -37.0013 3.6854 416.109
859 1 -50.995 2.20863 416.455 -50.995 2.20863 416.455
596 1 -36.6097 2.32664 409.343 -36.6097 2.32664 409.343
879 1 -40.1329 0.727044 416.56 -40.1329 0.727044 416.56
1172 1 -36.3657 4.38111 418.533 -36.3657 4.38111 418.533
1154 1 -47.227 1.43458 418.424 -47.227 1.43458 418.424
887 1 -36.1693 1.48792 415.151 -36.1693 1.48792 415.151
597 1 -35.9732 3.02217 411.768 -35.9732 3.02217 411.768
1161 1 -43.2643 2.19602 417.012 -43.2643 2.19602 417.012
1138 1 -57.2565 0.718689 417.363 -57.2565 0.718689 417.363
1149 1 -50.3579 2.90333 418.878 -50.3579 2.90333 418.878
41 1 -35.3845 3.19639 401.638 -35.3845 3.19639 401.638
888 1 -35.3372 3.71781 414.193 -35.3372 3.71781 414.193
1165 1 -40.9647 2.92432 417.519 -40.9647 2.92432 417.519
1141 1 -54.957 1.44679 417.868 -54.957 1.44679 417.868
1145 1 -52.6575 2.17506 418.373 -52.6575 2.17506 418.373
600 1 -34.9451 2.3583 407.428 -34.9451 2.3583 407.428
1148 1 -51.1892 0.672777 419.837 -51.1892 0.672777 419.837
882 1 -39.1055 0.0643921 412.218 -39.1055 4.49184 412.218
1157 1 -45.759 4.3599 419.889 -45.759 4.3599 419.889
1144 1 -53.4886 4.37195 419.332 -53.4886 4.37195 419.332
602 1 -33.476 0.856037 408.895 -33.476 0.856037 408.895
1131 1 -60.5799 0.651001 421.201 -60.5799 0.651001 421.201
1755 1 -33.8257 2.73774 428.232 -33.8257 2.73774 428.232
1460 1 -38.226 2.81385 423.833 -38.226 2.81385 423.833
2308 1 -47.5592 3.30456 437.769 -47.5592 3.30456 437.769
2316 1 -42.7719 1.87267 435.396 -42.7719 1.87267 435.396
2312 1 -45.262 4.03442 438.275 -45.262 4.03442 438.275
1464 1 -35.9272 3.54278 424.341 -35.9272 3.54278 424.341
1461 1 -37.3942 0.616667 422.875 -37.3942 0.616667 422.875
2039 1 -36.5162 3.36665 434.491 -36.5162 3.36665 434.491
2613 1 -38.3714 1.79704 439.795 -38.3714 1.79704 439.795
1467 1 -33.6285 4.2717 424.849 -33.6285 4.2717 424.849
2603 1 -43.7947 2.53329 439.741 -43.7947 2.53329 439.741
1443 1 -47.4217 4.32637 421.807 -47.4217 4.32637 421.807
1748 1 -37.5907 3.50966 426.258 -37.5907 3.50966 426.258
2023 1 -45.0693 1.14291 434.89 -45.0693 1.14291 434.89
2310 1 -46.0917 1.80331 439.235 -46.0917 1.80331 439.235
1151 1 -48.8897 1.40107 420.343 -48.8897 1.40107 420.343
2303 1 -50.6864 0.343677 438.224 -50.6864 0.343677 438.224
2299 1 -52.9841 4.04158 437.718 -52.9841 4.04158 437.718
2033 1 -39.6442 0.405988 434.943 -39.6442 0.405988 434.943
1433 1 -52.8514 0.638973 421.756 -52.8514 0.638973 421.756
1430 1 -54.5132 0.604923 423.675 -54.5132 0.604923 423.675
1426 1 -56.1746 0.570615 425.595 -56.1746 0.570615 425.595
1713 1 -57.8356 0.536071 427.514 -57.8356 0.536071 427.514
1710 1 -59.4962 0.501337 429.434 -59.4962 0.501337 429.434
2330 1 -34.4144 2.56162 438.383 -34.4144 2.56162 438.383
1160 1 -43.4597 0.660891 420.395 -43.4597 0.660891 420.395
1447 1 -45.1226 0.627457 422.313 -45.1226 0.627457 422.313
1444 1 -46.7852 0.593773 424.231 -46.7852 0.593773 424.231
1730 1 -48.4474 0.559831 426.15 -48.4474 0.559831 426.15
1727 1 -50.109 0.525627 428.069 -50.109 0.525627 428.069
1724 1 -51.7701 0.49118 429.989 -51.7701 0.49118 429.989
2008 1 -53.4308 0.456528 431.908 -53.4308 0.456528 431.908
2006 1 -55.0909 0.421729 433.828 -55.0909 0.421729 433.828
1458 1 -39.0577 0.583508 424.792 -39.0577 0.583508 424.792
1743 1 -40.7206 0.550035 426.709 -40.7206 0.550035 426.709
1740 1 -42.3831 0.516254 428.627 -42.3831 0.516254 428.627
2026 1 -44.045 0.482179 430.546 -44.045 0.482179 430.546
2022 1 -45.7062 0.447837 432.465 -45.7062 0.447837 432.465
2019 1 -47.3669 0.41327 434.384 -47.3669 0.41327 434.384
2309 1 -46.7294 1.10823 436.809 -46.7294 1.10823 436.809
1137 1 -57.4499 3.60987 420.746 -57.4499 3.60987 420.746
1421 1 -59.1114 3.57573 422.666 -59.1114 3.57573 422.666
1439 1 -49.721 3.59796 421.302 -49.721 3.59796 421.302
1435 1 -51.3832 3.56411 423.221 -51.3832 3.56411 423.221
1432 1 -53.045 3.53001 425.14 -53.045 3.53001 425.14
1719 1 -54.7063 3.49565 427.059 -54.7063 3.49565 427.059
1716 1 -56.3672 3.46106 428.979 -56.3672 3.46106 428.979
2001 1 -58.0277 3.42631 430.899 -58.0277 3.42631 430.899
1998 1 -59.6879 3.39145 432.819 -59.6879 3.39145 432.819
2323 1 -38.1776 3.33246 436.409 -38.1776 3.33246 436.409
1453 1 -41.9921 3.58657 421.86 -41.9921 3.58657 421.86
1450 1 -43.6551 3.55311 423.778 -43.6551 3.55311 423.778
1446 1 -45.3176 3.51939 425.696 -45.3176 3.51939 425.696
1732 1 -46.9797 3.4854 427.615 -46.9797 3.4854 427.615
1729 1 -48.6412 3.45114 429.534 -48.6412 3.45114 429.534
2014 1 -50.3022 3.41665 431.453 -50.3022 3.41665 431.453
2011 1 -51.9627 3.38196 433.373 -51.9627 3.38196 433.373
1745 1 -39.2537 3.47619 428.175 -39.2537 3.47619 428.175
1742 1 -40.9161 3.44239 430.093 -40.9161 3.44239 430.093
2028 1 -42.5779 3.40828 432.011 -42.5779 3.40828 432.011
2025 1 -44.239 3.37391 433.93 -44.239 3.37391 433.93
1427 1 -55.9815 2.10736 422.211 -55.9815 2.10736 422.211
1424 1 -57.643 2.07313 424.13 -57.643 2.07313 424.13
1711 1 -59.304 2.03863 426.05 -59.304 2.03863 426.05
2322 1 -39.0079 1.10152 437.369 -39.0079 1.10152 437.369
1750 1 -36.124 2.00848 427.724 -36.124 2.00848 427.724
1155 1 -46.5904 2.12944 420.848 -46.5904 2.12944 420.848
1441 1 -48.253 2.09579 422.767 -48.253 2.09579 422.767
1438 1 -49.9152 2.0619 424.685 -49.9152 2.0619 424.685
1725 1 -51.5769 2.02774 426.604 -51.5769 2.02774 426.604
1722 1 -53.2382 1.99334 428.524 -53.2382 1.99334 428.524
1718 1 -54.899 1.95872 430.443 -54.899 1.95872 430.443
2003 1 -56.5593 1.92395 432.363 -56.5593 1.92395 432.363
2000 1 -58.2193 1.88908 434.284 -58.2193 1.88908 434.284
1459 1 -38.8614 2.11814 421.409 -38.8614 2.11814 421.409
1455 1 -40.5248 2.08496 423.326 -40.5248 2.08496 423.326
1452 1 -42.1878 2.05149 425.244 -42.1878 2.05149 425.244
1737 1 -43.8503 2.01773 427.162 -43.8503 2.01773 427.162
1735 1 -45.5122 1.9837 429.08 -45.5122 1.9837 429.08
2020 1 -47.1736 1.9494 430.999 -47.1736 1.9494 430.999
2017 1 -48.8345 1.91486 432.919 -48.8345 1.91486 432.919
2034 1 -39.4493 1.94121 431.559 -39.4493 1.94121 431.559
2031 1 -41.111 1.90707 433.477 -41.111 1.90707 433.477
2029 1 -41.9415 4.10363 434.437 -41.9415 4.10363 434.437
1146 1 -52.0203 2.86963 420.797 -52.0203 2.86963 420.797
1431 1 -53.6824 2.83571 422.716 -53.6824 2.83571 422.716
1428 1 -55.344 2.80153 424.635 -55.344 2.80153 424.635
1715 1 -57.0052 2.7671 426.554 -57.0052 2.7671 426.554
1712 1 -58.666 2.73245 428.474 -58.666 2.73245 428.474
1708 1 -60.3264 2.69765 430.394 -60.3264 2.69765 430.394
1747 1 -37.787 1.97502 429.641 -37.787 1.97502 429.641
1449 1 -44.2912 2.85793 421.354 -44.2912 2.85793 421.354
1445 1 -45.954 2.82437 423.272 -45.954 2.82437 423.272
1442 1 -47.6163 2.79056 425.191 -47.6163 2.79056 425.191
1728 1 -49.2782 2.75649 427.11 -49.2782 2.75649 427.11
1726 1 -50.9396 2.72216 429.029 -50.9396 2.72216 429.029
2010 1 -52.6005 2.6876 430.948 -52.6005 2.6876 430.948
2007 1 -54.2609 2.65287 432.868 -54.2609 2.65287 432.868
1456 1 -39.8892 2.78054 425.75 -39.8892 2.78054 425.75
1741 1 -41.5519 2.74691 427.668 -41.5519 2.74691 427.668
1738 1 -43.2141 2.71298 429.586 -43.2141 2.71298 429.586
2024 1 -44.8757 2.67877 431.505 -44.8757 2.67877 431.505
2021 1 -46.5366 2.64431 433.424 -46.5366 2.64431 433.424
2035 1 -38.8135 2.63683 433.984 -38.8135 2.63683 433.984
1754 1 -34.4604 2.04157 425.807 -34.4604 2.04157 425.807
1423 1 -58.2807 1.37912 421.706 -58.2807 1.37912 421.706
1420 1 -59.942 1.34482 423.626 -59.942 1.34482 423.626
2044 1 -33.3878 1.89967 434.04 -33.3878 1.89967 434.04
1437 1 -50.5521 1.36734 422.261 -50.5521 1.36734 422.261
1434 1 -52.2142 1.33336 424.18 -52.2142 1.33336 424.18
1721 1 -53.8757 1.29913 426.099 -53.8757 1.29913 426.099
1717 1 -55.5369 1.26465 428.019 -55.5369 1.26465 428.019
1714 1 -57.1975 1.22998 429.939 -57.1975 1.22998 429.939
1999 1 -58.8579 1.19516 431.859 -58.8579 1.19516 431.859
1997 1 -60.5179 1.16027 433.779 -60.5179 1.16027 433.779
1164 1 -41.1605 1.38947 420.902 -41.1605 1.38947 420.902
1451 1 -42.8236 1.35615 422.819 -42.8236 1.35615 422.819
1448 1 -44.4864 1.32256 424.737 -44.4864 1.32256 424.737
1734 1 -46.1487 1.2887 426.656 -46.1487 1.2887 426.656
1731 1 -47.8105 1.25457 428.575 -47.8105 1.25457 428.575
2016 1 -49.4718 1.2202 430.494 -49.4718 1.2202 430.494
2012 1 -51.1325 1.1856 432.413 -51.1325 1.1856 432.413
2009 1 -52.7927 1.15084 434.333 -52.7927 1.15084 434.333
1746 1 -38.4223 1.27924 427.216 -38.4223 1.27924 427.216
1744 1 -40.085 1.2456 429.134 -40.085 1.2456 429.134
2030 1 -41.7471 1.21164 431.052 -41.7471 1.21164 431.052
2027 1 -43.4085 1.1774 432.971 -43.4085 1.1774 432.971
2325 1 -37.347 1.13587 435.45 -37.347 1.13587 435.45
1749 1 -36.9555 4.20552 428.682 -36.9555 4.20552 428.682
1425 1 -56.8123 4.30401 423.17 -56.8123 4.30401 423.17
1736 1 -44.6813 4.21448 428.121 -44.6813 4.21448 428.121
1142 1 -54.3197 2.14133 420.292 -54.3197 2.14133 420.292
1720 1 -54.0686 4.18978 429.484 -54.0686 4.18978 429.484
2005 1 -55.7292 4.15508 431.403 -55.7292 4.15508 431.403
2002 1 -57.3893 4.12025 433.324 -57.3893 4.12025 433.324
1169 1 -38.0296 4.34835 420.45 -38.0296 4.34835 420.45
1723 1 -52.4076 4.2243 427.564 -52.4076 4.2243 427.564
1440 1 -49.0841 4.2926 423.726 -49.0841 4.2926 423.726
1733 1 -46.343 4.1803 430.04 -46.343 4.1803 430.04
2018 1 -48.0041 4.14588 431.959 -48.0041 4.14588 431.959
2015 1 -49.6647 4.11125 433.878 -49.6647 4.11125 433.878
2036 1 -38.6182 4.17188 430.6 -38.6182 4.17188 430.6
2032 1 -40.2802 4.1379 432.518 -40.2802 4.1379 432.518
2326 1 -36.7111 1.83155 437.876 -36.7111 1.83155 437.876
1752 1 -35.2923 4.2388 426.765 -35.2923 4.2388 426.765
1457 1 -39.6931 4.31531 422.367 -39.6931 4.31531 422.367
2043 1 -34.0226 1.20356 431.615 -34.0226 1.20356 431.615
2286 1 -59.8789 1.85419 436.204 -59.8789 1.85419 436.204
2319 1 -40.6681 1.06695 439.288 -40.6681 1.06695 439.288
1436 1 -50.7461 4.25858 425.645 -50.7461 4.25858 425.645
1422 1 -58.4735 4.26964 425.09 -58.4735 4.26964 425.09
1173 1 -35.7304 0.649512 420.958 -35.7304 0.649512 420.958
2293 1 -56.1118 1.08107 438.173 -56.1118 1.08107 438.173
2289 1 -58.4101 0.351961 437.669 -58.4101 0.351961 437.669
2295 1 -54.6431 4.00667 439.638 -54.6431 4.00667 439.638
1465 1 -35.0953 1.34549 423.383 -35.0953 1.34549 423.383
2315 1 -42.9649 0.336926 438.781 -42.9649 0.336926 438.781
2331 1 -34.2189 4.09651 434.999 -34.2189 4.09651 434.999
2297 1 -53.8137 1.8104 438.678 -53.8137 1.8104 438.678
2324 1 -37.5414 4.02805 438.835 -37.5414 4.02805 438.835
2306 1 -48.3889 1.07342 438.729 -48.3889 1.07342 438.729
2285 1 -60.0692 0.317142 439.589 -60.0692 0.317142 439.589
1462 1 -36.759 1.31254 425.299 -36.759 1.31254 425.299
1751 1 -35.489 2.70448 430.149 -35.489 2.70448 430.149
2329 1 -35.0499 1.86579 435.958 -35.0499 1.86579 435.958
2042 1 -34.854 3.4005 432.574 -34.854 3.4005 432.574
2041 1 -35.6852 1.1699 433.532 -35.6852 1.1699 433.532
2593 1 -49.2184 3.26972 439.689 -49.2184 3.26972 439.689
2328 1 -35.2448 0.330702 439.342 -35.2448 0.330702 439.342
2301 1 -51.5159 2.53995 439.184 -51.5159 2.53995 439.184
1466 1 -34.2633 3.57556 422.424 -34.2633 3.57556 422.424
2298 1 -53.6226 3.34714 435.293 -53.6226 3.34714 435.293
2321 1 -39.8381 3.29799 438.328 -39.8381 3.29799 438.328
2313 1 -44.4321 1.83806 437.315 -44.4321 1.83806 437.315
2294 1 -55.2822 3.31225 437.213 -55.2822 3.31225 437.213
2304 1 -49.8567 2.57484 437.264 -49.8567 2.57484 437.264
2300 1 -52.1544 1.8453 436.758 -52.1544 1.8453 436.758
2290 1 -57.5804 2.58313 436.708 -57.5804 2.58313 436.708
2318 1 -41.3049 0.371555 436.862 -41.3049 0.371555 436.862
2327 1 -35.8806 4.06243 436.917 -35.8806 4.06243 436.917
2004 1 -55.9209 2.61802 434.788 -55.9209 2.61802 434.788
2013 1 -50.4947 1.88014 434.838 -50.4947 1.88014 434.838
2288 1 -59.0492 4.08536 435.244 -59.0492 4.08536 435.244
2037 1 -37.9827 0.440151 433.025 -37.9827 0.440151 433.025
1739 1 -43.0191 4.24837 426.203 -43.0191 4.24837 426.203
1753 1 -34.6574 0.507434 429.19 -34.6574 0.507434 429.19
2307 1 -48.197 2.60964 435.344 -48.197 2.60964 435.344
2314 1 -43.6021 4.06911 436.356 -43.6021 4.06911 436.356
2040 1 -36.3204 0.473981 431.107 -36.3204 0.473981 431.107
2320 1 -40.4747 2.60253 435.903 -40.4747 2.60253 435.903
2292 1 -56.7507 0.386848 435.748 -56.7507 0.386848 435.748
2311 1 -45.8994 3.33931 435.85 -45.8994 3.33931 435.85
2302 1 -51.3247 4.07646 435.798 -51.3247 4.07646 435.798
2296 1 -54.4525 1.11597 436.253 -54.4525 1.11597 436.253
1463 1 -36.5624 2.84686 421.916 -36.5624 2.84686 421.916
2287 1 -59.2397 2.54826 438.629 -59.2397 2.54826 438.629
2291 1 -56.9413 3.27735 439.133 -56.9413 3.27735 439.133
2317 1 -42.135 2.56799 437.822 -42.135 2.56799 437.822
2038 1 -37.1516 2.67084 432.066 -37.1516 2.67084 432.066
2305 1 -49.0269 0.37853 436.304 -49.0269 0.37853 436.304
2332 1 -33.5837 0.364998 437.424 -33.5837 0.364998 437.424
1709 1 -60.1344 4.23502 427.01 -60.1344 4.23502 427.01
1468 1 -33.4312 1.3781 421.466 -33.4312 1.3781 421.466
1454 1 -41.3563 4.28199 424.285 -41.3563 4.28199 424.285
1429 1 -55.1506 4.33811 421.251 -55.1506 4.33811 421.251
1133 1 -59.7492 2.8818 420.242 -59.7492 2.8818 420.242
1175 1 -34.8984 2.87954 420 -34.8984 2.87954 420
2616 1 -36.2679 0.991634 443.687 -36.2679 0.991634 443.687
2901 1 -37.9263 0.956878 445.607 -37.9263 0.956878 445.607
2907 1 -34.8014 3.91819 445.154 -34.8014 3.91819 445.154
3194 1 -35.8209 0.151352 449.501 -35.8209 0.151352 449.501
2587 1 -52.3453 0.308777 440.144 -52.3453 0.308777 440.144
2597 1 -46.9212 3.99963 440.195 -46.9212 3.99963 440.195
2584 1 -54.0038 0.273897 442.064 -54.0038 0.273897 442.064
2581 1 -55.6619 0.239111 443.984 -55.6619 0.239111 443.984
2868 1 -57.3196 0.204498 445.904 -57.3196 0.204498 445.904
2865 1 -58.9772 0.170145 447.824 -58.9772 0.170145 447.824
2601 1 -44.6242 0.302178 440.701 -44.6242 0.302178 440.701
2598 1 -46.2828 0.267387 442.621 -46.2828 0.267387 442.621
2885 1 -47.9408 0.232623 444.541 -47.9408 0.232623 444.541
2882 1 -49.5982 0.19795 446.462 -49.5982 0.19795 446.462
2879 1 -51.2552 0.16344 448.382 -51.2552 0.16344 448.382
2612 1 -38.564 0.261439 443.181 -38.564 0.261439 443.181
2898 1 -40.2224 0.226695 445.1 -40.2224 0.226695 445.1
2895 1 -41.8799 0.191999 447.021 -41.8799 0.191999 447.021
3180 1 -43.5368 0.15741 448.941 -43.5368 0.15741 448.941
2576 1 -58.6001 3.24254 441.054 -58.6001 3.24254 441.054
2574 1 -60.2586 3.20789 442.974 -60.2586 3.20789 442.974
2589 1 -50.877 3.23484 441.609 -50.877 3.23484 441.609
2586 1 -52.5352 3.2 443.529 -52.5352 3.2 443.529
2874 1 -54.1929 3.16527 445.45 -54.1929 3.16527 445.45
2871 1 -55.8502 3.13071 447.37 -55.8502 3.13071 447.37
3155 1 -57.5072 3.09641 449.29 -57.5072 3.09641 449.29
2607 1 -41.4979 3.26334 440.248 -41.4979 3.26334 440.248
2604 1 -43.1569 3.22859 442.167 -43.1569 3.22859 442.167
2600 1 -44.8152 3.19383 444.087 -44.8152 3.19383 444.087
2887 1 -46.4728 3.15913 446.008 -46.4728 3.15913 446.008
2884 1 -48.1299 3.12455 447.928 -48.1299 3.12455 447.928
3168 1 -49.7864 3.09017 449.849 -49.7864 3.09017 449.849
2900 1 -38.7552 3.15324 446.567 -38.7552 3.15324 446.567
2897 1 -40.4124 3.11859 448.487 -40.4124 3.11859 448.487
2582 1 -55.4725 1.7755 440.598 -55.4725 1.7755 440.598
2579 1 -57.131 1.7407 442.519 -57.131 1.7407 442.519
2866 1 -58.7891 1.70606 444.439 -58.7891 1.70606 444.439
2578 1 -57.7707 1.04621 440.094 -57.7707 1.04621 440.094
2595 1 -47.7506 1.76848 441.155 -47.7506 1.76848 441.155
2592 1 -49.4089 1.73366 443.075 -49.4089 1.73366 443.075
2880 1 -51.0667 1.69889 444.995 -51.0667 1.69889 444.995
2877 1 -52.724 1.66425 446.916 -52.724 1.66425 446.916
2873 1 -54.3809 1.62981 448.836 -54.3809 1.62981 448.836
2609 1 -40.0309 1.76237 441.714 -40.0309 1.76237 441.714
2606 1 -41.6896 1.72762 443.634 -41.6896 1.72762 443.634
2892 1 -43.3475 1.69289 445.554 -43.3475 1.69289 445.554
2890 1 -45.0048 1.65824 447.474 -45.0048 1.65824 447.474
3174 1 -46.6615 1.62374 449.395 -46.6615 1.62374 449.395
2618 1 -35.4384 3.22272 442.728 -35.4384 3.22272 442.728
2585 1 -53.1746 2.50506 441.104 -53.1746 2.50506 441.104
2583 1 -54.8329 2.47021 443.024 -54.8329 2.47021 443.024
2870 1 -56.4908 2.4355 444.944 -56.4908 2.4355 444.944
2867 1 -58.1484 2.40101 446.864 -58.1484 2.40101 446.864
2863 1 -59.8059 2.36682 448.784 -59.8059 2.36682 448.784
2599 1 -45.4536 2.49851 441.661 -45.4536 2.49851 441.661
2596 1 -47.1119 2.46372 443.581 -47.1119 2.46372 443.581
2883 1 -48.7696 2.429 445.501 -48.7696 2.429 445.501
2881 1 -50.4268 2.3944 447.422 -50.4268 2.3944 447.422
3164 1 -52.0835 2.36 449.342 -52.0835 2.36 449.342
2610 1 -39.3933 2.45779 444.14 -39.3933 2.45779 444.14
2896 1 -41.0512 2.42306 446.06 -41.0512 2.42306 446.06
2893 1 -42.7085 2.38841 447.981 -42.7085 2.38841 447.981
3178 1 -44.365 2.3539 449.901 -44.365 2.3539 449.901
2575 1 -59.4294 1.01147 442.014 -59.4294 1.01147 442.014
2591 1 -50.0478 1.03855 440.649 -50.0478 1.03855 440.649
2588 1 -51.7062 1.00369 442.569 -51.7062 1.00369 442.569
2876 1 -53.3641 0.96889 444.49 -53.3641 0.96889 444.49
2872 1 -55.0216 0.934233 446.41 -55.0216 0.934233 446.41
2869 1 -56.6787 0.899795 448.33 -56.6787 0.899795 448.33
2605 1 -42.3275 1.03225 441.207 -42.3275 1.03225 441.207
2602 1 -43.9861 0.997485 443.127 -43.9861 0.997485 443.127
2889 1 -45.6441 0.962745 445.048 -45.6441 0.962745 445.048
2886 1 -47.3014 0.928096 446.968 -47.3014 0.928096 446.968
3170 1 -48.9582 0.893605 448.888 -48.9582 0.893605 448.888
2899 1 -39.5839 0.922172 447.527 -39.5839 0.922172 447.527
3184 1 -41.2407 0.887591 449.448 -41.2407 0.887591 449.448
2580 1 -56.3018 3.97181 441.559 -56.3018 3.97181 441.559
2577 1 -57.9601 3.93708 443.479 -57.9601 3.93708 443.479
2864 1 -59.6181 3.90256 445.399 -59.6181 3.90256 445.399
2862 1 -60.4471 1.67168 446.359 -60.4471 1.67168 446.359
2594 1 -48.5798 3.96479 442.115 -48.5798 3.96479 442.115
2590 1 -50.2378 3.92999 444.035 -50.2378 3.92999 444.035
2878 1 -51.8954 3.89528 445.956 -51.8954 3.89528 445.956
2875 1 -53.5525 3.86072 447.876 -53.5525 3.86072 447.876
3159 1 -55.2092 3.82641 449.796 -55.2092 3.82641 449.796
2611 1 -39.2013 3.99345 440.754 -39.2013 3.99345 440.754
2608 1 -40.8603 3.95872 442.674 -40.8603 3.95872 442.674
2894 1 -42.5186 3.92398 444.594 -42.5186 3.92398 444.594
2891 1 -44.1763 3.88928 446.514 -44.1763 3.88928 446.514
2888 1 -45.8332 3.8547 448.434 -45.8332 3.8547 448.434
2904 1 -36.4594 3.8834 447.074 -36.4594 3.8834 447.074
2621 1 -33.7786 3.25735 440.809 -33.7786 3.25735 440.809
2617 1 -36.0749 2.52717 440.302 -36.0749 2.52717 440.302
2614 1 -37.7345 2.49253 442.221 -37.7345 2.49253 442.221
2908 1 -34.1638 0.186117 447.581 -34.1638 0.186117 447.581
2619 1 -34.6086 1.02633 441.768 -34.6086 1.02633 441.768
2906 1 -34.9924 2.38244 448.541 -34.9924 2.38244 448.541
2905 1 -35.6305 1.68706 446.114 -35.6305 1.68706 446.114
2620 1 -33.972 1.72186 444.194 -33.972 1.72186 444.194
3190 1 -38.1165 3.84872 448.994 -38.1165 3.84872 448.994
2902 1 -37.2881 1.65232 448.034 -37.2881 1.65232 448.034
2903 1 -37.0972 3.18798 444.647 -37.0972 3.18798 444.647
2615 1 -36.9048 0.296144 441.261 -36.9048 0.296144 441.261
2909 1 -33.3349 2.41727 446.621 -33.3349 2.41727 446.621
14 1 -52.3919 0.313989 399.151 -52.3919 4.74144 399.151
7 1 -56.8673 3.26333 398.263 -56.8673 3.26333 398.263
25 1 -44.6158 0.313709 399.628 -44.6158 4.74116 399.628
38 1 -36.8331 0.246373 400.132 -36.8331 4.67383 400.132
23 1 -46.2722 0.261743 401.535 -46.2722 4.6892 401.535
287 1 -49.5865 0.186503 405.349 -49.5865 4.61396 405.349
878 1 -40.7691 0.0316736 414.136 -40.7691 4.45913 414.136
579 1 -46.8383 0.0781164 411.659 -46.8383 4.50557 411.659
585 1 -43.5125 0.143734 407.823 -43.5125 4.57119 407.823
290 1 -47.9302 0.222704 403.436 -47.9302 4.65016 403.436
11 1 -54.0009 0.252344 401.004 -54.0009 4.6798 401.004
595 1 -37.4418 0.0968685 410.302 -37.4418 4.52432 410.302
1134 1 -59.5561 4.4184 416.858 -59.5561 4.4184 416.858
283 1 -51.2468 0.153978 407.265 -51.2468 4.58143 407.265
582 1 -45.1754 0.110984 409.741 -45.1754 4.53844 409.741
276 1 -55.6683 0.236841 402.883 -55.6683 4.66429 402.883
569 1 -52.9079 0.122347 409.183 -52.9079 4.5498 409.183
847 1 -57.8939 0.0241811 414.939 -57.8939 4.45163 414.939
556 1 -60.6391 0.139566 408.63 -60.6391 4.56702 408.63
272 1 -57.3201 0.207073 404.792 -57.3201 4.63453 404.792
3 1 -58.6832 3.26556 399.967 -58.6832 3.26556 399.967
35 1 -38.5125 0.234819 402.059 -38.5125 4.66227 402.059
598 1 -35.7774 0.128878 408.386 -35.7774 4.55633 408.386
850 1 -56.2315 0.0569544 413.02 -56.2315 4.48441 413.02