ITEM: TIMESTEP
0
ITEM: NUMBER OF ATOMS
4630
ITEM: BOX BOUNDS xy xz yz pp pp pp
-5.6240988501799997e+01 9.9260020350000005e+01 0.0000000000000000e+00
0.0000000000000000e+00 4.4274527100805940e+00 0.0000000000000000e+00
3.8000000000000000e+02 5.0000000000000000e+02 0.0000000000000000e+00
ITEM: ATOMS id type x y z xu yu zu
27 1 -42.0756 2.69305 398.105 -42.0756 2.69305 398.105
36 1 -36.6586 1.94344 397.805 -36.6586 1.94344 397.805
31 1 -39.6887 3.36241 398.387 -39.6887 3.36241 398.387
22 1 -45.126 4.11876 398.725 -45.126 4.11876 398.725
20 1 -45.8639 1.90426 399.656 -45.8639 1.90426 399.656
40 1 -34.2742 2.61603 398.093 -34.2742 2.61603 398.093
34 1 -37.3814 4.14506 398.723 -37.3814 4.14506 398.723
17 1 -48.1752 1.13984 399.33 -48.1752 1.13984 399.33
9 1 -53.5328 1.8156 399.604 -53.5328 1.8156 399.604
43 1 -31.9685 3.39952 398.433 -31.9685 3.39952 398.433
12 1 -51.2649 2.66896 399.972 -51.2649 2.66896 399.972
5 1 -55.9128 1.19755 399.317 -55.9128 1.19755 399.317
29 1 -40.4575 1.13799 399.315 -40.4575 1.13799 399.315
853 1 -51.8855 3.08258 414.577 -51.8855 3.08258 414.577
873 1 -41.1147 1.60909 413.958 -41.1147 1.60909 413.958
865 1 -44.9545 0.839725 415.636 -44.9545 0.839725 415.636
1174 1 -32.6252 2.28351 416.4 -32.6252 2.28351 416.4
883 1 -35.7233 0.869654 413.656 -35.7233 0.869654 413.656
863 1 -46.5024 2.34718 414.267 -46.5024 2.34718 414.267
315 1 -31.9458 1.83163 401.798 -31.9458 1.83163 401.798
307 1 -36.5622 3.27131 404.473 -36.5622 3.27131 404.473
1150 1 -46.4827 0.79642 417.668 -46.4827 0.79642 417.668
855 1 -50.3392 1.57538 415.946 -50.3392 1.57538 415.946
310 1 -35.0346 3.3065 402.451 -35.0346 3.3065 402.451
871 1 -41.8786 3.80207 414.974 -41.8786 3.80207 414.974
16 1 -48.9284 3.34421 400.264 -48.9284 3.34421 400.264
309 1 -35.0065 1.76458 405.843 -35.0065 1.76458 405.843
1156 1 -43.4072 3.75981 417.005 -43.4072 3.75981 417.005
867 1 -44.1908 3.07471 414.62 -44.1908 3.07471 414.62
1159 1 -41.0954 0.0601742 417.359 -41.0954 4.48763 417.359
1168 1 -35.7048 3.74992 417.056 -35.7048 3.74992 417.056
1170 1 -34.9393 1.55649 416.042 -34.9393 1.55649 416.042
594 1 -35.7702 3.96025 406.857 -35.7702 3.96025 406.857
37 1 -35.8204 2.60558 400.076 -35.8204 2.60558 400.076
851 1 -52.6484 0.846791 415.593 -52.6484 0.846791 415.593
857 1 -49.576 3.81111 414.93 -49.576 3.81111 414.93
592 1 -36.5337 1.72786 407.87 -36.5337 1.72786 407.87
849 1 -53.4117 3.03819 416.61 -53.4117 3.03819 416.61
877 1 -38.8016 2.33623 414.314 -38.8016 2.33623 414.314
1143 1 -51.1027 3.76688 416.962 -51.1027 3.76688 416.962
1140 1 -52.6306 3.72172 418.996 -52.6306 3.72172 418.996
845 1 -55.72 2.30983 416.258 -55.72 2.30983 416.258
875 1 -39.566 0.10197 415.329 -39.566 4.52942 415.329
886 1 -34.194 0.908973 411.629 -34.194 0.908973 411.629
891 1 -31.113 3.86787 410.975 -31.113 3.86787 410.975
39 1 -34.2754 1.10774 401.435 -34.2754 1.10774 401.435
1177 1 -31.077 0.776812 417.773 -31.077 0.776812 417.773
1167 1 -36.4704 1.51566 418.07 -36.4704 1.51566 418.07
8 1 -54.3208 4.08522 400.648 -54.3208 4.08522 400.648
869 1 -42.6428 1.56734 415.989 -42.6428 1.56734 415.989
1136 1 -54.9391 2.99269 418.644 -54.9391 2.99269 418.644
1162 1 -39.5485 2.98068 418.729 -39.5485 2.98068 418.729
15 1 -49.6973 1.12671 401.323 -49.6973 1.12671 401.323
280 1 -51.2127 1.09557 403.352 -51.2127 1.09557 403.352
277 1 -52.7323 1.06842 405.381 -52.7323 1.06842 405.381
273 1 -54.2468 1.02795 407.417 -54.2468 1.02795 407.417
560 1 -55.7664 0.987304 409.452 -55.7664 0.987304 409.452
26 1 -41.9897 1.12527 401.357 -41.9897 1.12527 401.357
294 1 -43.5146 1.09523 403.4 -43.5146 1.09523 403.4
291 1 -45.0361 1.05725 405.433 -45.0361 1.05725 405.433
576 1 -46.5561 1.01671 407.464 -46.5561 1.01671 407.464
573 1 -48.0771 0.975873 409.495 -48.0771 0.975873 409.495
570 1 -49.5992 0.933734 411.527 -49.5992 0.933734 411.527
854 1 -51.123 0.890664 413.56 -51.123 0.890664 413.56
305 1 -37.3248 1.03956 405.484 -37.3248 1.03956 405.484
589 1 -38.85 1.00194 407.513 -38.85 1.00194 407.513
586 1 -40.3752 0.963097 409.542 -40.3752 0.963097 409.542
872 1 -41.9009 0.923098 411.573 -41.9009 0.923098 411.573
599 1 -32.6646 0.947069 409.602 -32.6646 0.947069 409.602
4 1 -55.8496 4.09493 402.625 -55.8496 4.09493 402.625
1152 1 -45.7185 3.03192 416.652 -45.7185 3.03192 416.652
19 1 -46.635 4.09014 400.681 -46.635 4.09014 400.681
286 1 -48.1483 4.05351 402.679 -48.1483 4.05351 402.679
282 1 -49.6596 4.01887 404.715 -49.6596 4.01887 404.715
279 1 -51.1782 3.98565 406.749 -51.1782 3.98565 406.749
565 1 -52.6964 3.94636 408.785 -52.6964 3.94636 408.785
563 1 -54.2176 3.90534 410.82 -54.2176 3.90534 410.82
846 1 -55.7408 3.86291 412.854 -55.7408 3.86291 412.854
32 1 -38.9135 4.08825 400.729 -38.9135 4.08825 400.729
300 1 -40.4382 4.05308 402.747 -40.4382 4.05308 402.747
297 1 -41.9597 4.01582 404.774 -41.9597 4.01582 404.774
293 1 -43.4815 3.97777 406.803 -43.4815 3.97777 406.803
578 1 -45.0036 3.9379 408.834 -45.0036 3.9379 408.834
575 1 -46.5266 3.89684 410.865 -46.5266 3.89684 410.865
860 1 -48.0507 3.85448 412.897 -48.0507 3.85448 412.897
591 1 -37.2971 3.92254 408.884 -37.2971 3.92254 408.884
588 1 -38.8238 3.88349 410.913 -38.8238 3.88349 410.913
874 1 -40.3509 3.8433 412.943 -40.3509 3.8433 412.943
10 1 -52.7737 2.59626 401.988 -52.7737 2.59626 401.988
274 1 -54.2917 2.58257 404.007 -54.2917 2.58257 404.007
271 1 -55.7979 2.53788 406.049 -55.7979 2.53788 406.049
24 1 -43.5693 2.64582 400.051 -43.5693 2.64582 400.051
21 1 -45.083 2.60267 402.042 -45.083 2.60267 402.042
288 1 -46.5938 2.56287 404.065 -46.5938 2.56287 404.065
285 1 -48.109 2.52073 406.094 -48.109 2.52073 406.094
571 1 -49.6278 2.4812 408.124 -49.6278 2.4812 408.124
568 1 -51.1478 2.43992 410.156 -51.1478 2.43992 410.156
852 1 -52.6701 2.39765 412.19 -52.6701 2.39765 412.19
848 1 -54.1944 2.35445 414.224 -54.1944 2.35445 414.224
306 1 -37.3542 2.57816 402.088 -37.3542 2.57816 402.088
302 1 -38.8804 2.54506 404.111 -38.8804 2.54506 404.111
299 1 -40.4039 2.50833 406.141 -40.4039 2.50833 406.141
583 1 -41.9276 2.47017 408.172 -41.9276 2.47017 408.172
581 1 -43.4517 2.43046 410.203 -43.4517 2.43046 410.203
866 1 -44.9766 2.38946 412.235 -44.9766 2.38946 412.235
880 1 -37.2732 2.37655 412.285 -37.2732 2.37655 412.285
312 1 -33.4778 1.79947 403.818 -33.4778 1.79947 403.818
13 1 -50.4481 3.32073 402.317 -50.4481 3.32073 402.317
278 1 -51.9724 3.29676 404.358 -51.9724 3.29676 404.358
275 1 -53.4884 3.26221 406.396 -53.4884 3.26221 406.396
562 1 -55.0059 3.22132 408.434 -55.0059 3.22132 408.434
1166 1 -37.2361 3.70863 419.085 -37.2361 3.70863 419.085
889 1 -31.8783 1.63518 411.988 -31.8783 1.63518 411.988
28 1 -41.2302 3.35462 400.372 -41.2302 3.35462 400.372
296 1 -42.7559 3.32523 402.39 -42.7559 3.32523 402.39
292 1 -44.2765 3.2904 404.418 -44.2765 3.2904 404.418
289 1 -45.796 3.25095 406.449 -45.796 3.25095 406.449
574 1 -47.3164 3.21022 408.479 -47.3164 3.21022 408.479
572 1 -48.838 3.16874 410.511 -48.838 3.16874 410.511
856 1 -50.3609 3.12603 412.544 -50.3609 3.12603 412.544
303 1 -38.0878 3.23454 406.499 -38.0878 3.23454 406.499
587 1 -39.6127 3.19634 408.527 -39.6127 3.19634 408.527
584 1 -41.138 3.15695 410.558 -41.138 3.15695 410.558
870 1 -42.664 3.1164 412.588 -42.664 3.1164 412.588
6 1 -55.0943 1.89315 401.601 -55.0943 1.89315 401.601
890 1 -31.0936 2.32288 414.374 -31.0936 2.32288 414.374
18 1 -47.3874 1.85877 401.674 -47.3874 1.85877 401.674
284 1 -48.9006 1.82348 403.703 -48.9006 1.82348 403.703
281 1 -50.419 1.78973 405.734 -50.419 1.78973 405.734
567 1 -51.9371 1.75295 407.768 -51.9371 1.75295 407.768
564 1 -53.4567 1.71226 409.803 -53.4567 1.71226 409.803
561 1 -54.9791 1.67066 411.837 -54.9791 1.67066 411.837
33 1 -38.1618 1.89364 399.745 -38.1618 1.89364 399.745
30 1 -39.6835 1.85452 401.728 -39.6835 1.85452 401.728
298 1 -41.1996 1.82003 403.756 -41.1996 1.82003 403.756
295 1 -42.7206 1.78323 405.787 -42.7206 1.78323 405.787
580 1 -44.2424 1.74423 407.818 -44.2424 1.74423 407.818
577 1 -45.765 1.70376 409.849 -45.765 1.70376 409.849
862 1 -47.2885 1.66207 411.881 -47.2885 1.66207 411.881
590 1 -38.0604 1.68945 409.899 -38.0604 1.68945 409.899
876 1 -39.5873 1.64981 411.928 -39.5873 1.64981 411.928
1163 1 -38.7831 0.787961 417.714 -38.7831 0.787961 417.714
1153 1 -44.9365 3.71655 419.037 -44.9365 3.71655 419.037
311 1 -34.2416 3.99624 404.83 -34.2416 3.99624 404.83
42 1 -32.748 1.14811 399.456 -32.748 1.14811 399.456
1135 1 -55.7033 0.755832 419.661 -55.7033 0.755832 419.661
1171 1 -34.1572 2.2432 418.427 -34.1572 2.2432 418.427
1139 1 -53.395 1.48507 420.012 -53.395 1.48507 420.012
601 1 -31.8998 3.17932 408.589 -31.8998 3.17932 408.589
313 1 -32.7098 4.03089 402.804 -32.7098 4.03089 402.804
858 1 -48.8132 1.61917 413.913 -48.8132 1.61917 413.913
868 1 -43.4273 0.881978 413.604 -43.4273 0.881978 413.604
1147 1 -48.7931 0.0680587 417.315 -48.7931 4.49551 417.315
593 1 -35.7452 2.41578 410.256 -35.7452 2.41578 410.256
308 1 -35.7986 1.07472 403.458 -35.7986 1.07472 403.458
861 1 -47.2657 0.111901 415.283 -47.2657 4.53935 415.283
1158 1 -41.8603 2.25264 418.374 -41.8603 2.25264 418.374
884 1 -34.9586 3.10318 412.642 -34.9586 3.10318 412.642
881 1 -36.488 3.06332 414.67 -36.488 3.06332 414.67
885 1 -34.174 3.79028 415.028 -34.174 3.79028 415.028
859 1 -48.0292 2.30382 416.299 -48.0292 2.30382 416.299
596 1 -34.2172 2.45372 408.229 -34.2172 2.45372 408.229
879 1 -37.2529 0.829286 415.685 -37.2529 0.829286 415.685
1172 1 -33.3912 0.0497424 417.414 -33.3912 4.4772 417.414
1154 1 -44.1717 1.52457 418.021 -44.1717 1.52457 418.021
887 1 -33.4087 1.59636 414.015 -33.4087 1.59636 414.015
597 1 -33.4294 3.14191 410.615 -33.4294 3.14191 410.615
1161 1 -40.3306 2.29492 416.344 -40.3306 2.29492 416.344
1138 1 -54.1752 0.801847 417.627 -54.1752 0.801847 417.627
1149 1 -47.2471 2.98813 418.684 -47.2471 2.98813 418.684
41 1 -33.5037 3.3412 400.438 -33.5037 3.3412 400.438
888 1 -32.6435 3.82964 413.001 -32.6435 3.82964 413.001
1165 1 -38.0179 3.02247 416.699 -38.0179 3.02247 416.699
1141 1 -51.8665 1.53069 417.979 -51.8665 1.53069 417.979
1145 1 -49.5572 2.25952 418.331 -49.5572 2.25952 418.331
600 1 -32.6884 2.49016 406.204 -32.6884 2.49016 406.204
1148 1 -48.0118 0.752161 419.7 -48.0118 0.752161 419.7
882 1 -36.5092 0.182585 411.27 -36.5092 4.61004 411.27
1157 1 -42.6255 0.0174282 419.39 -42.6255 4.44488 419.39
1144 1 -50.3215 0.023299 419.348 -50.3215 4.45075 419.348
602 1 -31.1346 0.983746 407.577 -31.1346 0.983746 407.577
1755 1 -30.2758 2.79763 426.953 -30.2758 2.79763 426.953
1460 1 -34.9103 2.88845 422.84 -34.9103 2.88845 422.84
2308 1 -43.3368 3.30627 437.405 -43.3368 3.30627 437.405
2316 1 -38.7293 1.89404 434.71 -38.7293 1.89404 434.71
2312 1 -41.0288 4.03825 437.757 -41.0288 4.03825 437.757
1464 1 -32.5977 3.61668 423.197 -32.5977 3.61668 423.197
1461 1 -34.1435 0.695555 421.826 -34.1435 0.695555 421.826
2039 1 -32.5748 3.4005 433.389 -32.5748 3.4005 433.389
2613 1 -34.1048 1.80689 438.816 -34.1048 1.80689 438.816
1467 1 -30.2847 4.34462 423.556 -30.2847 4.34462 423.556
2603 1 -39.4869 2.5332 439.126 -39.4869 2.5332 439.126
1443 1 -44.1562 4.40121 421.421 -44.1562 4.40121 421.421
1748 1 -34.1325 3.575 425.224 -34.1325 3.575 425.224
2023 1 -41.0381 1.16257 434.357 -41.0381 1.16257 434.357
2310 1 -41.7946 1.801 438.773 -41.7946 1.801 438.773
1151 1 -45.7015 1.48085 420.052 -45.7015 1.48085 420.052
2303 1 -46.4107 0.337108 438.07 -46.4107 0.337108 438.07
2299 1 -48.7192 4.03307 437.718 -48.7192 4.03307 437.718
2033 1 -35.6527 0.434132 434.049 -35.6527 0.434132 434.049
1433 1 -49.5417 0.707007 421.732 -49.5417 0.707007 421.732
1430 1 -51.0724 0.661063 423.765 -51.0724 0.661063 423.765
1426 1 -52.6038 0.61452 425.798 -52.6038 0.61452 425.798
1713 1 -54.1359 0.567624 427.831 -54.1359 0.567624 427.831
1710 1 -55.6685 0.52064 429.863 -55.6685 0.52064 429.863
2330 1 -30.2603 2.58285 437.142 -30.2603 2.58285 437.142
1160 1 -40.3139 0.745716 419.744 -40.3139 0.745716 419.744
1447 1 -41.8454 0.702569 421.775 -41.8454 0.702569 421.775
1444 1 -43.3773 0.658536 423.805 -43.3773 0.658536 423.805
1730 1 -44.9097 0.61365 425.837 -44.9097 0.61365 425.837
1727 1 -46.4422 0.567986 427.869 -46.4422 0.567986 427.869
1724 1 -47.9748 0.52168 429.901 -47.9748 0.52168 429.901
2008 1 -49.5074 0.474924 431.933 -49.5074 0.474924 431.933
2006 1 -51.0397 0.427942 433.966 -51.0397 0.427942 433.966
1458 1 -35.6773 0.653674 423.854 -35.6773 0.653674 423.854
1743 1 -37.2115 0.610931 425.883 -37.2115 0.610931 425.883
1740 1 -38.7457 0.567292 427.912 -38.7457 0.567292 427.912
2026 1 -40.2799 0.522744 429.942 -40.2799 0.522744 429.942
2022 1 -41.8137 0.477321 431.973 -41.8137 0.477321 431.973
2019 1 -43.3469 0.431121 434.005 -43.3469 0.431121 434.005
2309 1 -42.5709 1.11604 436.389 -42.5709 1.11604 436.389
1137 1 -54.1596 3.67567 421.029 -54.1596 3.67567 421.029
1421 1 -55.6898 3.62894 423.062 -55.6898 3.62894 423.062
1439 1 -46.4667 3.67236 421.068 -46.4667 3.67236 421.068
1435 1 -47.9975 3.6273 423.101 -47.9975 3.6273 423.101
1432 1 -49.5289 3.58145 425.133 -49.5289 3.58145 425.133
1719 1 -51.0608 3.53501 427.166 -51.0608 3.53501 427.166
1716 1 -52.5931 3.48818 429.198 -52.5931 3.48818 429.198
2001 1 -54.1257 3.44123 431.231 -54.1257 3.44123 431.231
1998 1 -55.6585 3.39439 433.263 -55.6585 3.39439 433.263
2323 1 -34.111 3.35663 435.418 -34.111 3.35663 435.418
1453 1 -38.768 3.66647 421.114 -38.768 3.66647 421.114
1450 1 -40.3004 3.62342 423.144 -40.3004 3.62342 423.144
1446 1 -41.8331 3.57949 425.174 -41.8331 3.57949 425.174
1732 1 -43.3661 3.5347 427.205 -43.3661 3.5347 427.205
1729 1 -44.8992 3.48911 429.237 -44.8992 3.48911 429.237
2014 1 -46.432 3.44285 431.269 -46.432 3.44285 431.269
2011 1 -47.9646 3.39609 433.301 -47.9646 3.39609 433.301
1745 1 -35.6675 3.53247 427.252 -35.6675 3.53247 427.252
1742 1 -37.2025 3.48902 429.281 -37.2025 3.48902 429.281
2028 1 -38.7372 3.44462 431.311 -38.7372 3.44462 431.311
2025 1 -40.2713 3.39929 433.341 -40.2713 3.39929 433.341
1427 1 -52.616 2.16829 422.397 -52.616 2.16829 422.397
1424 1 -54.1468 2.12165 424.43 -54.1468 2.12165 424.43
1711 1 -55.6786 2.07466 426.463 -55.6786 2.07466 426.463
2322 1 -34.8787 1.12053 436.432 -34.8787 1.12053 436.432
1750 1 -32.5881 2.06904 426.595 -32.5881 2.06904 426.595
1155 1 -43.3908 2.20943 420.405 -43.3908 2.20943 420.405
1441 1 -44.9218 2.16532 422.437 -44.9218 2.16532 422.437
1438 1 -46.4534 2.12034 424.469 -46.4534 2.12034 424.469
1725 1 -47.9855 2.07459 426.501 -47.9855 2.07459 426.501
1722 1 -49.5178 2.02823 428.533 -49.5178 2.02823 428.533
1718 1 -51.0502 1.98145 430.566 -51.0502 1.98145 430.566
2003 1 -52.5828 1.9345 432.599 -52.5828 1.9345 432.599
2000 1 -54.1152 1.88761 434.631 -54.1152 1.88761 434.631
1459 1 -35.6896 2.20202 420.455 -35.6896 2.20202 420.455
1455 1 -37.2225 2.15997 422.484 -37.2225 2.15997 422.484
1452 1 -38.7557 2.11706 424.513 -38.7557 2.11706 424.513
1737 1 -40.2893 2.07326 426.543 -40.2893 2.07326 426.543
1735 1 -41.8229 2.02858 428.574 -41.8229 2.02858 428.574
2020 1 -43.3563 1.98307 430.605 -43.3563 1.98307 430.605
2017 1 -44.8894 1.93684 432.637 -44.8894 1.93684 432.637
2034 1 -35.6596 1.98351 430.65 -35.6596 1.98351 430.65
2031 1 -37.1948 1.93927 432.68 -37.1948 1.93927 432.68
2029 1 -37.9622 4.1305 433.695 -37.9622 4.1305 433.695
1146 1 -48.7766 2.94342 420.716 -48.7766 2.94342 420.716
1431 1 -50.307 2.89785 422.749 -50.307 2.89785 422.749
1428 1 -51.838 2.85158 424.782 -51.838 2.85158 424.782
1715 1 -53.3698 2.80483 426.814 -53.3698 2.80483 426.814
1712 1 -54.9021 2.75785 428.847 -54.9021 2.75785 428.847
1747 1 -34.1239 2.02674 428.622 -34.1239 2.02674 428.622
1449 1 -41.0796 2.93798 420.759 -41.0796 2.93798 420.759
1445 1 -42.6113 2.89439 422.79 -42.6113 2.89439 422.79
1442 1 -44.1435 2.84992 424.821 -44.1435 2.84992 424.821
1728 1 -45.6759 2.80463 426.853 -45.6759 2.80463 426.853
1726 1 -47.2085 2.75863 428.885 -47.2085 2.75863 428.885
2010 1 -48.7411 2.71207 430.917 -48.7411 2.71207 430.917
2007 1 -50.2736 2.66517 432.95 -50.2736 2.66517 432.95
1456 1 -36.4444 2.84614 424.868 -36.4444 2.84614 424.868
1741 1 -37.9786 2.80295 426.897 -37.9786 2.80295 426.897
1738 1 -39.5128 2.75886 428.927 -39.5128 2.75886 428.927
2024 1 -41.0469 2.71386 430.957 -41.0469 2.71386 430.957
2021 1 -42.5804 2.66804 432.989 -42.5804 2.66804 432.989
2035 1 -34.885 2.67002 433.034 -34.885 2.67002 433.034
1754 1 -31.0524 2.11047 424.569 -31.0524 2.11047 424.569
1423 1 -54.9245 1.43865 422.046 -54.9245 1.43865 422.046
2044 1 -29.4953 1.93799 432.733 -29.4953 1.93799 432.733
1437 1 -47.232 1.43621 422.084 -47.232 1.43621 422.084
1434 1 -48.7631 1.39074 424.117 -48.7631 1.39074 424.117
1721 1 -50.2948 1.34457 426.149 -50.2948 1.34457 426.149
1717 1 -51.8269 1.2979 428.182 -51.8269 1.2979 428.182
1714 1 -53.3594 1.25098 430.215 -53.3594 1.25098 430.215
1999 1 -54.8921 1.20405 432.247 -54.8921 1.20405 432.247
1164 1 -38.002 1.47393 420.099 -38.002 1.47393 420.099
1451 1 -39.5341 1.43132 422.129 -39.5341 1.43132 422.129
1448 1 -41.0667 1.38783 424.159 -41.0667 1.38783 424.159
1734 1 -42.5996 1.34347 426.19 -42.5996 1.34347 426.19
1731 1 -44.1326 1.29827 428.221 -44.1326 1.29827 428.221
2016 1 -45.6656 1.25233 430.253 -45.6656 1.25233 430.253
2012 1 -47.1984 1.20579 432.285 -47.1984 1.20579 432.285
2009 1 -48.7307 1.15886 434.317 -48.7307 1.15886 434.317
1746 1 -34.9 1.34012 426.238 -34.9 1.34012 426.238
1744 1 -36.435 1.29713 428.267 -36.435 1.29713 428.267
2030 1 -37.9699 1.25321 430.296 -37.9699 1.25321 430.296
2027 1 -39.5044 1.20834 432.326 -39.5044 1.20834 432.326
2325 1 -33.343 1.16499 434.403 -33.343 1.16499 434.403
1749 1 -33.356 4.26173 427.609 -33.356 4.26173 427.609
1425 1 -53.3813 4.35876 423.414 -53.3813 4.35876 423.414
1736 1 -41.0561 4.26475 427.558 -41.0561 4.26475 427.558
1142 1 -51.0861 2.21431 420.364 -51.0861 2.21431 420.364
1720 1 -50.284 4.2186 429.55 -50.284 4.2186 429.55
2005 1 -51.8165 4.17171 431.582 -51.8165 4.17171 431.582
2002 1 -53.349 4.12476 433.615 -53.349 4.12476 433.615
1169 1 -34.9233 0.00899327 419.441 -34.9233 4.43645 419.441
1723 1 -48.7516 4.2652 427.517 -48.7516 4.2652 427.517
1440 1 -45.6876 4.35666 423.453 -45.6876 4.35666 423.453
1733 1 -42.5896 4.21965 429.589 -42.5896 4.21965 429.589
2018 1 -44.1229 4.17376 431.621 -44.1229 4.17376 431.621
2015 1 -45.6557 4.12723 433.653 -45.6557 4.12723 433.653
2036 1 -34.8918 4.21897 429.636 -34.8918 4.21897 429.636
2032 1 -36.4273 4.17524 431.665 -36.4273 4.17524 431.665
2326 1 -32.5696 1.85184 436.787 -32.5696 1.85184 436.787
1752 1 -31.8202 4.30358 425.582 -31.8202 4.30358 425.582
1457 1 -36.456 4.39483 421.47 -36.456 4.39483 421.47
2043 1 -30.2691 1.2505 430.349 -30.2691 1.2505 430.349
2286 1 -55.6474 1.841 436.663 -55.6474 1.841 436.663
2319 1 -36.4128 1.07492 438.463 -36.4128 1.07492 438.463
1436 1 -47.2194 4.31128 425.485 -47.2194 4.31128 425.485
1422 1 -54.9126 4.31191 425.447 -54.9126 4.31191 425.447
1173 1 -32.61 0.7366 419.799 -32.61 0.7366 419.799
2293 1 -51.7937 1.06478 438.383 -51.7937 1.06478 438.383
2289 1 -54.1033 0.334253 438.031 -54.1033 0.334253 438.031
2295 1 -50.2497 3.98593 439.751 -50.2497 3.98593 439.751
1465 1 -31.8305 1.42349 422.184 -31.8305 1.42349 422.184
2315 1 -38.7208 0.342864 438.11 -38.7208 0.342864 438.11
2331 1 -30.2642 4.13063 433.746 -30.2642 4.13063 433.746
2297 1 -49.4846 1.79575 438.734 -49.4846 1.79575 438.734
2324 1 -33.3374 4.04325 437.801 -33.3374 4.04325 437.801
2306 1 -44.1025 1.06894 438.421 -44.1025 1.06894 438.421
2285 1 -55.6343 0.287992 440.063 -55.6343 0.287992 440.063
1462 1 -33.3651 1.38222 424.211 -33.3651 1.38222 424.211
1751 1 -31.8124 2.75604 428.979 -31.8124 2.75604 428.979
2329 1 -31.033 1.89552 434.759 -31.033 1.89552 434.759
2042 1 -31.0378 3.44324 431.362 -31.0378 3.44324 431.362
2041 1 -31.8064 1.20828 432.376 -31.8064 1.20828 432.376
2593 1 -44.8678 3.25898 439.438 -44.8678 3.25898 439.438
2328 1 -31.0286 0.347212 438.156 -31.0286 0.347212 438.156
2301 1 -47.176 2.52717 439.086 -47.176 2.52717 439.086
1466 1 -31.0633 3.65755 421.171 -31.0633 3.65755 421.171
2298 1 -49.4967 3.34905 435.334 -49.4967 3.34905 435.334
2321 1 -35.646 3.31159 437.447 -35.646 3.31159 437.447
2313 1 -40.2626 1.84789 436.741 -40.2626 1.84789 436.741
2294 1 -51.0282 3.30198 437.366 -51.0282 3.30198 437.366
2304 1 -45.6451 2.57447 437.053 -45.6451 2.57447 437.053
2300 1 -47.9537 1.84295 436.702 -47.9537 1.84295 436.702
2290 1 -53.3376 2.5713 437.015 -53.3376 2.5713 437.015
2318 1 -37.1875 0.388999 436.079 -37.1875 0.388999 436.079
2327 1 -31.8015 4.08757 435.773 -31.8015 4.08757 435.773
2004 1 -51.8058 2.61817 434.982 -51.8058 2.61817 434.982
2013 1 -46.4219 1.89006 434.669 -46.4219 1.89006 434.669
2288 1 -54.8813 4.07798 435.647 -54.8813 4.07798 435.647
2037 1 -34.117 0.478188 432.02 -34.117 0.478188 432.02
1739 1 -39.5225 4.309 425.528 -39.5225 4.309 425.528
1753 1 -31.0441 0.563214 427.966 -31.0441 0.563214 427.966
2307 1 -44.1132 2.6215 435.021 -44.1132 2.6215 435.021
2314 1 -39.4961 4.0848 435.725 -39.4961 4.0848 435.725
2040 1 -32.5807 0.521187 429.992 -32.5807 0.521187 429.992
2320 1 -36.4203 2.62542 435.063 -36.4203 2.62542 435.063
2292 1 -52.5718 0.380974 435.999 -52.5718 0.380974 435.999
2311 1 -41.8046 3.35312 435.373 -41.8046 3.35312 435.373
2302 1 -47.1879 4.08026 435.685 -47.1879 4.08026 435.685
2296 1 -50.2625 1.11177 436.35 -50.2625 1.11177 436.35
1463 1 -33.3767 2.92991 420.813 -33.3767 2.92991 420.813
2287 1 -54.8689 2.52478 439.047 -54.8689 2.52478 439.047
2291 1 -52.559 3.25512 439.399 -52.559 3.25512 439.399
2317 1 -37.9543 2.57977 437.094 -37.9543 2.57977 437.094
2038 1 -33.3489 2.71354 431.006 -33.3489 2.71354 431.006
2305 1 -44.8793 0.384308 436.037 -44.8793 0.384308 436.037
2332 1 -29.4915 0.390697 436.129 -29.4915 0.390697 436.129
1468 1 -30.2962 1.46396 420.158 -30.2962 1.46396 420.158
1454 1 -37.9891 4.35235 423.498 -37.9891 4.35235 423.498
1429 1 -51.8509 4.40512 421.381 -51.8509 4.40512 421.381
1175 1 -31.8435 2.97054 418.786 -31.8435 2.97054 418.786
2616 1 -31.7903 0.988616 442.57 -31.7903 0.988616 442.57
2901 1 -33.3217 0.941645 444.602 -33.3217 0.941645 444.602
2907 1 -30.2503 3.91168 443.939 -30.2503 3.91168 443.939
3194 1 -31.0045 0.121957 448.357 -31.0045 0.121957 448.357
2587 1 -47.941 0.289783 440.103 -47.941 0.289783 440.103
2597 1 -42.56 3.99108 439.79 -42.56 3.99108 439.79
2584 1 -49.4701 0.242619 442.136 -49.4701 0.242619 442.136
2581 1 -50.9981 0.195896 444.169 -50.9981 0.195896 444.169
2868 1 -52.525 0.149884 446.202 -52.525 0.149884 446.202
2865 1 -54.051 0.104822 448.234 -54.051 0.104822 448.234
2601 1 -40.2525 0.295913 440.142 -40.2525 0.295913 440.142
2598 1 -41.7823 0.248423 442.175 -41.7823 0.248423 442.175
2885 1 -43.3103 0.20074 444.209 -43.3103 0.20074 444.209
2882 1 -44.8363 0.153241 446.244 -44.8363 0.153241 446.244
2879 1 -46.3605 0.1063 448.278 -46.3605 0.1063 448.278
2612 1 -34.097 0.256092 442.216 -34.097 0.256092 442.216
2898 1 -35.6274 0.208772 444.249 -35.6274 0.208772 444.249
2895 1 -37.1549 0.160759 446.283 -37.1549 0.160759 446.283
3180 1 -38.6796 0.112545 448.318 -38.6796 0.112545 448.318
2576 1 -54.0891 3.20871 441.432 -54.0891 3.20871 441.432
2574 1 -55.6184 3.16297 443.464 -55.6184 3.16297 443.464
2589 1 -46.3974 3.21153 441.471 -46.3974 3.21153 441.471
2586 1 -47.9255 3.16423 443.505 -47.9255 3.16423 443.505
2874 1 -49.4523 3.11738 445.538 -49.4523 3.11738 445.538
2871 1 -50.9779 3.07128 447.571 -50.9779 3.07128 447.571
3155 1 -52.5024 3.02618 449.604 -52.5024 3.02618 449.604
2607 1 -37.1793 3.26545 439.478 -37.1793 3.26545 439.478
2604 1 -38.7106 3.21841 441.511 -38.7106 3.21841 441.511
2600 1 -40.2398 3.17078 443.544 -40.2398 3.17078 443.544
2887 1 -41.7667 3.12295 445.579 -41.7667 3.12295 445.579
2884 1 -43.2915 3.07535 447.614 -43.2915 3.07535 447.614
3168 1 -44.8143 3.0284 449.649 -44.8143 3.0284 449.649
2900 1 -34.0862 3.13149 445.618 -34.0862 3.13149 445.618
2897 1 -35.6127 3.08324 447.653 -35.6127 3.08324 447.653
2582 1 -51.0146 1.74874 440.767 -51.0146 1.74874 440.767
2579 1 -52.5437 1.70217 442.8 -52.5437 1.70217 442.8
2866 1 -54.0719 1.65629 444.833 -54.0719 1.65629 444.833
2578 1 -53.3242 1.01812 440.415 -53.3242 1.01812 440.415
2595 1 -43.325 1.75362 440.806 -43.325 1.75362 440.806
2592 1 -44.8538 1.70606 442.84 -44.8538 1.70606 442.84
2880 1 -46.3809 1.65865 444.874 -46.3809 1.65865 444.874
2877 1 -47.9065 1.61173 446.908 -47.9065 1.61173 446.908
2873 1 -49.4306 1.56561 448.942 -49.4306 1.56561 448.942
2609 1 -35.638 1.76071 440.847 -35.638 1.76071 440.847
2606 1 -37.1689 1.71355 442.88 -37.1689 1.71355 442.88
2892 1 -38.6973 1.66575 444.914 -38.6973 1.66575 444.914
2890 1 -40.2232 1.61774 446.948 -40.2232 1.61774 446.948
3174 1 -41.7466 1.57 448.984 -41.7466 1.57 448.984
2618 1 -31.0236 3.22533 441.555 -31.0236 3.22533 441.555
2585 1 -48.7057 2.47989 441.119 -48.7057 2.47989 441.119
2583 1 -50.2342 2.43291 443.152 -50.2342 2.43291 443.152
2870 1 -51.7617 2.38651 445.185 -51.7617 2.38651 445.185
2867 1 -53.2881 2.34095 447.218 -53.2881 2.34095 447.218
2863 1 -54.8137 2.29644 449.25 -54.8137 2.29644 449.25
2599 1 -41.0177 2.48594 441.159 -41.0177 2.48594 441.159
2596 1 -42.5465 2.43831 443.192 -42.5465 2.43831 443.192
2883 1 -44.0735 2.39067 445.226 -44.0735 2.39067 445.226
2881 1 -45.5986 2.3434 447.261 -45.5986 2.3434 447.261
3164 1 -47.122 2.29688 449.295 -47.122 2.29688 449.295
2610 1 -34.8626 2.44627 443.232 -34.8626 2.44627 443.232
2896 1 -36.3915 2.39855 445.266 -36.3915 2.39855 445.266
2893 1 -37.9176 2.35037 447.301 -37.9176 2.35037 447.301
3178 1 -39.4409 2.30225 449.336 -39.4409 2.30225 449.336
2575 1 -54.8539 0.972016 442.448 -54.8539 0.972016 442.448
2591 1 -45.6328 1.02153 440.455 -45.6328 1.02153 440.455
2588 1 -47.1616 0.974117 442.488 -47.1616 0.974117 442.488
2876 1 -48.6891 0.927005 444.522 -48.6891 0.927005 444.522
2872 1 -50.2153 0.880495 446.555 -50.2153 0.880495 446.555
2869 1 -51.7403 0.834862 448.588 -51.7403 0.834862 448.588
2605 1 -37.9452 1.0283 440.494 -37.9452 1.0283 440.494
2602 1 -39.4755 0.980919 442.527 -39.4755 0.980919 442.527
2889 1 -41.0035 0.93314 444.561 -41.0035 0.93314 444.561
2886 1 -42.5294 0.885373 446.596 -42.5294 0.885373 446.596
3170 1 -44.0531 0.838045 448.631 -44.0531 0.838045 448.631
2899 1 -34.8499 0.893695 446.635 -34.8499 0.893695 446.635
3184 1 -36.3747 0.84529 448.671 -36.3747 0.84529 448.671
2580 1 -51.7793 3.93911 441.784 -51.7793 3.93911 441.784
2577 1 -53.3079 3.89286 443.816 -53.3079 3.89286 443.816
2864 1 -54.8356 3.8474 445.849 -54.8356 3.8474 445.849
2862 1 -55.5992 1.61131 446.865 -55.5992 1.61131 446.865
2594 1 -44.0896 3.94357 441.823 -44.0896 3.94357 441.823
2590 1 -45.6176 3.89604 443.857 -45.6176 3.89604 443.857
2878 1 -47.1439 3.84883 445.891 -47.1439 3.84883 445.891
2875 1 -48.6687 3.80228 447.925 -48.6687 3.80228 447.925
3159 1 -50.1922 3.75667 449.958 -50.1922 3.75667 449.958
2611 1 -34.8717 3.99767 439.832 -34.8717 3.99767 439.832
2608 1 -36.4037 3.95096 441.863 -36.4037 3.95096 441.863
2894 1 -37.9334 3.90343 443.897 -37.9334 3.90343 443.897
2891 1 -39.4605 3.85547 445.931 -39.4605 3.85547 445.931
2888 1 -40.9852 3.80753 447.966 -40.9852 3.80753 447.966
2904 1 -31.7811 3.86449 445.971 -31.7811 3.86449 445.971
2621 1 -29.4881 3.27017 439.526 -29.4881 3.27017 439.526
2617 1 -31.7966 2.53867 439.171 -31.7966 2.53867 439.171
2614 1 -33.3308 2.49309 441.201 -33.3308 2.49309 441.201
2908 1 -29.4763 0.170071 446.324 -29.4763 0.170071 446.324
2619 1 -30.2561 1.03422 440.54 -30.2561 1.03422 440.54
2906 1 -30.2409 2.35988 447.34 -30.2409 2.35988 447.34
2905 1 -31.0162 1.67452 444.955 -31.0162 1.67452 444.955
2620 1 -29.4836 1.72099 442.924 -29.4836 1.72099 442.924
3190 1 -33.3084 3.81626 448.005 -33.3084 3.81626 448.005
2902 1 -32.5452 1.62675 446.988 -32.5452 1.62675 446.988
2903 1 -32.5564 3.17901 443.585 -32.5564 3.17901 443.585
2615 1 -32.564 0.302322 440.185 -32.564 0.302322 440.185
2909 1 -28.7107 2.40735 445.308 -28.7107 2.40735 445.308
14 1 -50.5611 0.467383 399.049 -50.5611 4.89484 399.049
7 1 -55.0454 3.41947 398.457 -55.0454 3.41947 398.457
25 1 -42.8078 0.466492 399.023 -42.8078 4.89394 399.023
38 1 -35.0393 0.391886 399.022 -35.0393 4.81934 399.022
23 1 -44.3216 0.411721 401.039 -44.3216 4.83917 401.039
287 1 -47.3513 0.32701 405.078 -47.3513 4.75446 405.078
878 1 -38.0373 0.142792 413.299 -38.0373 4.57024 413.299
579 1 -44.214 0.196407 411.219 -44.214 4.62386 411.219
585 1 -41.1655 0.275829 407.157 -41.1655 4.70328 407.157
290 1 -45.8379 0.368861 403.053 -45.8379 4.79631 403.053
11 1 -52.0211 0.404395 401.016 -52.0211 4.83185 401.016
595 1 -34.9812 0.221219 409.243 -34.9812 4.64867 409.243
283 1 -48.8684 0.287046 407.107 -48.8684 4.7145 407.107
582 1 -42.6895 0.236794 409.188 -42.6895 4.66425 409.188
276 1 -53.5414 0.383455 403.006 -53.5414 4.81091 403.006
569 1 -50.3876 0.246962 409.139 -50.3876 4.67442 409.139
847 1 -54.957 0.118598 415.241 -54.957 4.54605 415.241
272 1 -55.0443 0.346132 405.032 -55.0443 4.77358 405.032
35 1 -36.5818 0.377948 401.059 -36.5818 4.8054 401.059
598 1 -33.4528 0.258452 407.216 -33.4528 4.6859 407.216
850 1 -53.432 0.162474 413.207 -53.432 4.58993 413.207
304 1 -38.115 0.349832 403.096 -38.115 4.77728 403.096
301 1 -39.6412 0.313569 405.126 -39.6412 4.74102 405.126
314 1 -31.9232 0.294232 405.192 -31.9232 4.72168 405.192
864 1 -45.7394 0.154755 413.251 -45.7394 4.58221 413.251
566 1 -51.9086 0.2051 411.173 -51.9086 4.63255 411.173
1176 1 -31.8594 0.0895896 415.387 -31.8594 4.51704 415.387
85 1 -6.50693 1.18776 395.769 -6.50693 1.18776 395.769
58 1 -23.4479 1.12325 397.523 -23.4479 1.12325 397.523
45 1 -31.2449 1.1979 397.516 -31.2449 1.1979 397.516
49 1 -28.8609 1.8698 397.806 -28.8609 1.8698 397.806
72 1 -15.0106 3.3874 396.672 -15.0106 3.3874 396.672
80 1 -9.56644 2.6117 396.374 -9.56644 2.6117 396.374
75 1 -12.6289 4.06157 396.966 -12.6289 4.06157 396.966
83 1 -7.24693 3.38791 396.682 -7.24693 3.38791 396.682
52 1 -26.5556 2.65304 398.148 -26.5556 2.65304 398.148
61 1 -21.1433 1.9069 397.867 -21.1433 1.9069 397.867
63 1 -20.4192 4.13271 396.95 -20.4192 4.13271 396.95
87 1 -4.89544 4.06428 396.987 -4.89544 4.06428 396.987
70 1 -15.7321 1.16181 397.589 -15.7321 1.16181 397.589