ITEM: TIMESTEP
0
ITEM: NUMBER OF ATOMS
4630
ITEM: BOX BOUNDS xy xz yz pp pp pp
-6.0940988501800000e+01 1.0396002034999999e+02 0.0000000000000000e+00
0.0000000000000000e+00 4.4274527100805940e+00 0.0000000000000000e+00
3.8000000000000000e+02 5.0000000000000000e+02 0.0000000000000000e+00
ITEM: ATOMS id type x y z xu yu zu
27 1 -43.945 2.51701 398.824 -43.945 2.51701 398.824
36 1 -38.4836 1.77081 398.876 -38.4836 1.77081 398.876
31 1 -41.5768 3.19383 399.261 -41.5768 3.19383 399.261
22 1 -47.0532 3.9468 399.242 -47.0532 3.9468 399.242
20 1 -47.869 1.73038 400.115 -47.869 1.73038 400.115
40 1 -36.1186 2.45012 399.318 -36.1186 2.45012 399.318
34 1 -39.2797 3.97141 399.738 -39.2797 3.97141 399.738
17 1 -50.1723 0.970425 399.647 -50.1723 0.970425 399.647
9 1 -55.5854 1.65017 399.569 -55.5854 1.65017 399.569
43 1 -33.8241 3.22888 399.799 -33.8241 3.22888 399.799
12 1 -53.3229 2.49039 400.074 -53.3229 2.49039 400.074
5 1 -57.9463 1.01707 399.118 -57.9463 1.01707 399.118
29 1 -42.4117 0.967871 400.133 -42.4117 0.967871 400.133
853 1 -54.9333 2.96804 414.519 -54.9333 2.96804 414.519
873 1 -44.0454 1.48738 414.624 -44.0454 1.48738 414.624
865 1 -48.019 0.727049 416.033 -48.019 0.727049 416.033
1174 1 -35.6607 2.17239 417.607 -35.6607 2.17239 417.607
883 1 -38.6009 0.746512 414.679 -38.6009 0.746512 414.679
863 1 -49.49 2.22827 414.571 -49.49 2.22827 414.571
315 1 -34.0258 1.67106 403.146 -34.0258 1.67106 403.146
307 1 -38.8417 3.11419 405.504 -38.8417 3.11419 405.504
1150 1 -49.6872 0.694807 417.949 -49.6872 0.694807 417.949
855 1 -53.4626 1.4671 415.981 -53.4626 1.4671 415.981
310 1 -37.1713 3.14475 403.595 -37.1713 3.14475 403.595
871 1 -44.8798 3.68523 415.581 -44.8798 3.68523 415.581
16 1 -50.9968 3.17265 400.525 -50.9968 3.17265 400.525
309 1 -37.3689 1.61266 406.966 -37.3689 1.61266 406.966
1156 1 -46.5484 3.65329 417.496 -46.5484 3.65329 417.496
867 1 -47.1849 2.95679 415.076 -47.1849 2.95679 415.076
1159 1 -44.2437 4.38193 418.001 -44.2437 4.38193 418.001
1168 1 -38.8 3.64163 418.057 -38.8 3.64163 418.057
1170 1 -37.9653 1.44368 417.1 -37.9653 1.44368 417.1
594 1 -38.2038 3.81117 407.923 -38.2038 3.81117 407.923
37 1 -37.8034 2.44038 401.188 -37.8034 2.44038 401.188
851 1 -55.7672 0.738299 415.476 -55.7672 0.738299 415.476
857 1 -52.6287 3.69699 415.024 -52.6287 3.69699 415.024
592 1 -39.0385 1.58192 408.88 -39.0385 1.58192 408.88
849 1 -56.6011 2.93598 416.434 -56.6011 2.93598 416.434
877 1 -41.7404 2.21589 415.129 -41.7404 2.21589 415.129
1143 1 -54.2965 3.66467 416.939 -54.2965 3.66467 416.939
1140 1 -55.9641 3.63226 418.855 -55.9641 3.63226 418.855
845 1 -58.9057 2.20767 415.93 -58.9057 2.20767 415.93
875 1 -42.5749 4.41377 416.087 -42.5749 4.41377 416.087
886 1 -36.9315 0.777841 412.765 -36.9315 0.777841 412.765
891 1 -33.7912 3.73524 412.317 -33.7912 3.73524 412.317
39 1 -36.3405 0.943144 402.634 -36.3405 0.943144 402.634
1177 1 -34.1909 0.671764 419.072 -34.1909 0.671764 419.072
1167 1 -39.6346 1.41207 419.014 -39.6346 1.41207 419.014
8 1 -56.4462 3.91564 400.55 -56.4462 3.91564 400.55
869 1 -45.7141 1.45557 416.538 -45.7141 1.45557 416.538
1136 1 -58.2686 2.90367 418.35 -58.2686 2.90367 418.35
1162 1 -42.7734 2.881 419.465 -42.7734 2.881 419.465
15 1 -51.8415 0.958208 401.525 -51.8415 0.958208 401.525
280 1 -53.5091 0.93082 403.432 -53.5091 0.93082 403.432
277 1 -55.1813 0.910883 405.341 -55.1813 0.910883 405.341
273 1 -56.8456 0.879018 407.258 -56.8456 0.879018 407.258
560 1 -58.5125 0.84749 409.175 -58.5125 0.84749 409.175
557 1 -60.1805 0.816132 411.09 -60.1805 0.816132 411.09
26 1 -44.0895 0.958335 402.059 -44.0895 0.958335 402.059
294 1 -45.7617 0.931895 403.987 -45.7617 0.931895 403.987
291 1 -47.43 0.898923 405.903 -47.43 0.898923 405.903
576 1 -49.0973 0.865898 407.817 -49.0973 0.865898 407.817
573 1 -50.7649 0.834353 409.731 -50.7649 0.834353 409.731
570 1 -52.4321 0.802442 411.645 -52.4321 0.802442 411.645
854 1 -54.0995 0.770323 413.561 -54.0995 0.770323 413.561
305 1 -39.6757 0.885206 406.46 -39.6757 0.885206 406.46
589 1 -41.3446 0.853832 408.374 -41.3446 0.853832 408.374
586 1 -43.0133 0.822285 410.289 -43.0133 0.822285 410.289
872 1 -44.682 0.790696 412.204 -44.682 0.790696 412.204
599 1 -35.2617 0.808827 410.852 -35.2617 0.808827 410.852
1132 1 -60.5731 2.17534 417.846 -60.5731 2.17534 417.846
4 1 -58.1358 3.92675 402.402 -58.1358 3.92675 402.402
268 1 -59.7866 3.88431 404.337 -59.7866 3.88431 404.337
1152 1 -48.8532 2.92468 416.991 -48.8532 2.92468 416.991
19 1 -48.7146 3.91657 401.077 -48.7146 3.91657 401.077
286 1 -50.3747 3.88561 402.965 -50.3747 3.88561 402.965
282 1 -52.0378 3.8585 404.886 -52.0378 3.8585 404.886
279 1 -53.7072 3.83368 406.801 -53.7072 3.83368 406.801
565 1 -55.3736 3.80366 408.719 -55.3736 3.80366 408.719
563 1 -57.041 3.77251 410.636 -57.041 3.77251 410.636
846 1 -58.709 3.74129 412.552 -58.709 3.74129 412.552
32 1 -40.9526 3.9183 401.635 -40.9526 3.9183 401.635
300 1 -42.6225 3.88858 403.539 -42.6225 3.88858 403.539
297 1 -44.2899 3.85697 405.451 -44.2899 3.85697 405.451
293 1 -45.9575 3.82531 407.365 -45.9575 3.82531 407.365
578 1 -47.6253 3.79325 409.279 -47.6253 3.79325 409.279
575 1 -49.2933 3.76143 411.194 -49.2933 3.76143 411.194
860 1 -50.9611 3.72931 413.108 -50.9611 3.72931 413.108
591 1 -39.8732 3.77998 409.837 -39.8732 3.77998 409.837
588 1 -41.5421 3.74852 411.752 -41.5421 3.74852 411.752
874 1 -43.211 3.71694 413.666 -43.211 3.71694 413.666
10 1 -54.984 2.42355 401.976 -54.984 2.42355 401.976
274 1 -56.659 2.4181 403.874 -56.659 2.4181 403.874
271 1 -58.3174 2.38213 405.797 -58.3174 2.38213 405.797
558 1 -59.9841 2.35005 407.713 -59.9841 2.35005 407.713
24 1 -45.5864 2.4688 400.652 -45.5864 2.4688 400.652
21 1 -47.2452 2.43278 402.532 -47.2452 2.43278 402.532
288 1 -48.9042 2.39838 404.442 -48.9042 2.39838 404.442
285 1 -50.5689 2.36419 406.355 -50.5689 2.36419 406.355
571 1 -52.2363 2.33406 408.267 -52.2363 2.33406 408.267
568 1 -53.903 2.30283 410.182 -53.903 2.30283 410.182
852 1 -55.5702 2.27115 412.098 -55.5702 2.27115 412.098
848 1 -57.238 2.23956 414.014 -57.238 2.23956 414.014
306 1 -39.4788 2.41484 403.085 -39.4788 2.41484 403.085
302 1 -41.1485 2.38586 404.995 -41.1485 2.38586 404.995
299 1 -42.8165 2.35492 406.91 -42.8165 2.35492 406.91
583 1 -44.4849 2.3236 408.826 -44.4849 2.3236 408.826
581 1 -46.1534 2.29199 410.741 -46.1534 2.29199 410.741
866 1 -47.8218 2.2603 412.656 -47.8218 2.2603 412.656
880 1 -40.0713 2.24747 413.215 -40.0713 2.24747 413.215
312 1 -35.6984 1.64263 405.054 -35.6984 1.64263 405.054
2 1 -59.6267 1.02857 400.971 -59.6267 1.02857 400.971
13 1 -52.6672 3.15414 402.458 -52.6672 3.15414 402.458
278 1 -54.3447 3.13516 404.379 -54.3447 3.13516 404.379
275 1 -56.0127 3.10898 406.297 -56.0127 3.10898 406.297
562 1 -57.6784 3.07678 408.216 -57.6784 3.07678 408.216
559 1 -59.3464 3.04557 410.132 -59.3464 3.04557 410.132
1166 1 -40.4691 3.60991 419.971 -40.4691 3.60991 419.971
889 1 -34.6262 1.50612 413.273 -34.6262 1.50612 413.273
28 1 -43.2589 3.18606 401.133 -43.2589 3.18606 401.133
296 1 -44.9301 3.15955 403.033 -44.9301 3.15955 403.033
292 1 -46.597 3.12933 404.946 -46.597 3.12933 404.946
289 1 -48.2635 3.09616 406.86 -48.2635 3.09616 406.86
574 1 -49.9311 3.06392 408.774 -49.9311 3.06392 408.774
572 1 -51.5985 3.03225 410.688 -51.5985 3.03225 410.688
856 1 -53.2657 3.00011 412.603 -53.2657 3.00011 412.603
303 1 -40.5106 3.08314 407.417 -40.5106 3.08314 407.417
587 1 -42.179 3.05173 409.331 -42.179 3.05173 409.331
584 1 -43.8476 3.0202 411.246 -43.8476 3.0202 411.246
870 1 -45.5163 2.9886 413.161 -45.5163 2.9886 413.161
6 1 -57.2992 1.7222 401.443 -57.2992 1.7222 401.443
270 1 -58.9563 1.68884 403.371 -58.9563 1.68884 403.371
267 1 -60.6203 1.65397 405.293 -60.6203 1.65397 405.293
890 1 -33.9909 2.20352 415.694 -33.9909 2.20352 415.694
18 1 -49.5389 1.68819 402.02 -49.5389 1.68819 402.02
284 1 -51.2033 1.65953 403.933 -51.2033 1.65953 403.933
281 1 -52.8731 1.63336 405.847 -52.8731 1.63336 405.847
567 1 -54.5407 1.60559 407.761 -54.5407 1.60559 407.761
564 1 -56.2072 1.57437 409.678 -56.2072 1.57437 409.678
561 1 -57.875 1.54324 411.594 -57.875 1.54324 411.594
844 1 -59.543 1.51177 413.51 -59.543 1.51177 413.51
33 1 -40.1315 1.72124 400.7 -40.1315 1.72124 400.7
30 1 -41.7943 1.68693 402.575 -41.7943 1.68693 402.575
298 1 -43.4565 1.65835 404.49 -43.4565 1.65835 404.49
295 1 -45.1235 1.62747 406.407 -45.1235 1.62747 406.407
580 1 -46.7913 1.59546 408.322 -46.7913 1.59546 408.322
577 1 -48.4593 1.56356 410.236 -48.4593 1.56356 410.236
862 1 -50.1272 1.53167 412.151 -50.1272 1.53167 412.151
590 1 -40.7076 1.55056 410.794 -40.7076 1.55056 410.794
876 1 -42.3766 1.51902 412.709 -42.3766 1.51902 412.709
1163 1 -41.9391 0.683228 418.507 -41.9391 0.683228 418.507
1153 1 -48.2167 3.62108 419.411 -48.2167 3.62108 419.411
311 1 -36.5331 3.84179 406.011 -36.5331 3.84179 406.011
42 1 -34.6748 0.978523 400.761 -34.6748 0.978523 400.761
1135 1 -59.1022 0.673664 419.308 -59.1022 0.673664 419.308
1171 1 -37.3301 2.14097 419.521 -37.3301 2.14097 419.521
1139 1 -56.7978 1.40225 419.813 -56.7978 1.40225 419.813
601 1 -34.4266 3.03785 409.896 -34.4266 3.03785 409.896
313 1 -34.8595 3.87217 404.097 -34.8595 3.87217 404.097
858 1 -51.7949 1.49941 414.066 -51.7949 1.49941 414.066
868 1 -46.3506 0.759013 414.118 -46.3506 0.759013 414.118
1147 1 -51.9919 4.3935 417.444 -51.9919 4.3935 417.444
843 1 -60.3768 3.70954 414.467 -60.3768 3.70954 414.467
593 1 -38.4022 2.27888 411.301 -38.4022 2.27888 411.301
308 1 -38.0064 0.915236 404.546 -38.0064 0.915236 404.546
861 1 -50.324 4.42587 415.528 -50.324 4.42587 415.528
1158 1 -45.0779 2.15219 418.959 -45.0779 2.15219 418.959
884 1 -37.7662 2.97593 413.722 -37.7662 2.97593 413.722
881 1 -39.4355 2.94449 415.636 -39.4355 2.94449 415.636
885 1 -37.1307 3.67312 416.143 -37.1307 3.67312 416.143
859 1 -51.1579 2.19597 416.486 -51.1579 2.19597 416.486
596 1 -36.7327 2.30996 409.388 -36.7327 2.30996 409.388
879 1 -40.2701 0.714967 416.593 -40.2701 0.714967 416.593
1172 1 -36.4954 4.37044 418.564 -36.4954 4.37044 418.564
1154 1 -47.3825 1.42349 418.454 -47.3825 1.42349 418.454
887 1 -36.2959 1.47505 415.186 -36.2959 1.47505 415.186
597 1 -36.0967 3.00711 411.809 -36.0967 3.00711 411.809
1161 1 -43.4093 2.18415 417.044 -43.4093 2.18415 417.044
1138 1 -57.4348 0.706136 417.392 -57.4348 0.706136 417.392
1149 1 -50.5212 2.89234 418.906 -50.5212 2.89234 418.906
41 1 -35.4982 3.17436 401.694 -35.4982 3.17436 401.694
888 1 -35.4611 3.70435 414.23 -35.4611 3.70435 414.23
1165 1 -41.1046 2.91285 417.55 -41.1046 2.91285 417.55
1141 1 -55.1303 1.43476 417.897 -55.1303 1.43476 417.897
1145 1 -52.8258 2.16356 418.402 -52.8258 2.16356 418.402
600 1 -35.0627 2.34049 407.475 -35.0627 2.34049 407.475
1148 1 -51.3552 0.662374 419.864 -51.3552 0.662374 419.864
882 1 -39.2368 0.0494714 412.258 -39.2368 4.47692 412.258
1157 1 -45.9122 4.34985 419.916 -45.9122 4.34985 419.916
1144 1 -53.6597 4.36103 419.359 -53.6597 4.36103 419.359
602 1 -33.5912 0.839299 408.94 -33.5912 0.839299 408.94
1131 1 -60.7692 0.640837 421.224 -60.7692 0.640837 421.224
1755 1 -33.9566 2.73332 428.248 -33.9566 2.73332 428.248
1460 1 -38.3642 2.80657 423.856 -38.3642 2.80657 423.856
2308 1 -47.7306 3.30644 437.77 -47.7306 3.30644 437.77
2316 1 -42.9297 1.87291 435.401 -42.9297 1.87291 435.401
2312 1 -45.4281 4.03661 438.275 -45.4281 4.03661 438.275
1464 1 -36.0603 3.53586 424.363 -36.0603 3.53586 424.363
1461 1 -37.5297 0.60878 422.899 -37.5297 0.60878 422.899
2039 1 -36.6581 3.36623 434.498 -36.6581 3.36623 434.498
2613 1 -38.5219 1.8001 439.793 -38.5219 1.8001 439.793
1467 1 -33.7564 4.26514 424.87 -33.7564 4.26514 424.87
2603 1 -43.9584 2.53643 439.739 -43.9584 2.53643 439.739
1443 1 -47.5804 4.31752 421.832 -47.5804 4.31752 421.832
1748 1 -37.7292 3.50394 426.277 -37.7292 3.50394 426.277
2023 1 -45.2323 1.14283 434.895 -45.2323 1.14283 434.895
2310 1 -46.2606 1.80615 439.234 -46.2606 1.80615 439.234
1151 1 -49.0507 1.39116 420.369 -49.0507 1.39116 420.369
2303 1 -50.8658 0.345879 438.223 -50.8658 0.345879 438.223
2299 1 -53.1687 4.04341 437.718 -53.1687 4.04341 437.718
2033 1 -39.794 0.405895 434.949 -39.794 0.405895 434.949
1433 1 -53.0228 0.629751 421.78 -53.0228 0.629751 421.78
1430 1 -54.6901 0.596907 423.696 -54.6901 0.596907 423.696
1426 1 -56.357 0.56383 425.612 -56.357 0.56383 425.612
1713 1 -58.0235 0.530542 427.529 -58.0235 0.530542 427.529
1710 1 -59.6897 0.497086 429.445 -59.6897 0.497086 429.445
2330 1 -34.554 2.56368 438.384 -34.554 2.56368 438.384
1160 1 -43.6078 0.651257 420.422 -43.6078 0.651257 420.422
1447 1 -45.2762 0.619034 422.337 -45.2762 0.619034 422.337
1444 1 -46.9442 0.586559 424.252 -46.9442 0.586559 424.252
1730 1 -48.6117 0.553836 426.168 -48.6117 0.553836 426.168
1727 1 -50.2789 0.520868 428.084 -50.2789 0.520868 428.084
1724 1 -51.9455 0.487677 430 -51.9455 0.487677 430
2008 1 -53.6117 0.454298 431.917 -53.6117 0.454298 431.917
2006 1 -55.2774 0.420786 433.834 -55.2774 0.420786 433.834
1458 1 -39.1985 0.576836 424.813 -39.1985 0.576836 424.813
1743 1 -40.8669 0.544586 426.727 -40.8669 0.544586 426.727
1740 1 -42.5348 0.51204 428.642 -42.5348 0.51204 428.642
2026 1 -44.2022 0.479215 430.558 -44.2022 0.479215 430.558
2022 1 -45.8689 0.446141 432.474 -45.8689 0.446141 432.474
2019 1 -47.5351 0.412859 434.39 -47.5351 0.412859 434.39
2309 1 -46.898 1.10945 436.812 -46.898 1.10945 436.812
1137 1 -57.6314 3.59962 420.771 -57.6314 3.59962 420.771
1421 1 -59.2984 3.5667 422.687 -59.2984 3.5667 422.687
1439 1 -49.8847 3.58864 421.327 -49.8847 3.58864 421.327
1435 1 -51.5523 3.55598 423.242 -51.5523 3.55598 423.242
1432 1 -53.2196 3.52309 425.158 -53.2196 3.52309 425.158
1719 1 -54.8864 3.48997 427.075 -54.8864 3.48997 427.075
1716 1 -56.5528 3.45665 428.991 -56.5528 3.45665 428.991
2001 1 -58.2189 3.42317 430.908 -58.2189 3.42317 430.908
1998 1 -59.8846 3.3896 432.825 -59.8846 3.3896 432.825
2323 1 -38.325 3.3333 436.413 -38.325 3.3333 436.413
1453 1 -42.1378 3.57793 421.885 -42.1378 3.57793 421.885
1450 1 -43.8062 3.5457 423.8 -43.8062 3.5457 423.8
1446 1 -45.4742 3.51319 425.715 -45.4742 3.51319 425.715
1732 1 -47.1417 3.48043 427.631 -47.1417 3.48043 427.631
1729 1 -48.8087 3.44743 429.547 -48.8087 3.44743 429.547
2014 1 -50.4752 3.4142 431.463 -50.4752 3.4142 431.463
2011 1 -52.1412 3.3808 433.38 -52.1412 3.3808 433.38
1745 1 -39.3976 3.4717 428.191 -39.3976 3.4717 428.191
1742 1 -41.0654 3.43914 430.106 -41.0654 3.43914 430.106
2028 1 -42.7326 3.40629 432.021 -42.7326 3.40629 432.021
2025 1 -44.3992 3.37319 433.937 -44.3992 3.37319 433.937
1427 1 -56.1607 2.09823 422.233 -56.1607 2.09823 422.233
1424 1 -57.8277 2.06522 424.149 -57.8277 2.06522 424.149
1711 1 -59.4942 2.03198 426.066 -59.4942 2.03198 426.066
2322 1 -39.1581 1.10301 437.371 -39.1581 1.10301 437.371
1750 1 -36.26 2.00372 427.741 -36.26 2.00372 427.741
1155 1 -46.7463 2.11998 420.874 -46.7463 2.11998 420.874
1441 1 -48.4143 2.08754 422.789 -48.4143 2.08754 422.789
1438 1 -50.082 2.05485 424.705 -50.082 2.05485 424.705
1725 1 -51.7492 2.02192 426.621 -51.7492 2.02192 426.621
1722 1 -53.4159 1.98876 428.537 -53.4159 1.98876 428.537
1718 1 -55.0822 1.95541 430.454 -55.0822 1.95541 430.454
2003 1 -56.7481 1.92191 432.371 -56.7481 1.92191 432.371
2000 1 -58.4137 1.88834 434.288 -58.4137 1.88834 434.288
1459 1 -38.9993 2.10928 421.435 -38.9993 2.10928 421.435
1455 1 -40.6681 2.07731 423.349 -40.6681 2.07731 423.349
1452 1 -42.3365 2.04507 425.264 -42.3365 2.04507 425.264
1737 1 -44.0044 2.01254 427.179 -44.0044 2.01254 427.179
1735 1 -45.6719 1.97974 429.094 -45.6719 1.97974 429.094
2020 1 -47.3387 1.9467 431.01 -47.3387 1.9467 431.01
2017 1 -49.0051 1.91344 432.926 -49.0051 1.91344 432.926
2034 1 -39.5961 1.93891 431.57 -39.5961 1.93891 431.57
2031 1 -41.2633 1.90604 433.485 -41.2633 1.90604 433.485
2029 1 -42.0966 4.10323 434.443 -42.0966 4.10323 434.443
1146 1 -52.189 2.85981 420.822 -52.189 2.85981 420.822
1431 1 -53.8565 2.82708 422.738 -53.8565 2.82708 422.738
1428 1 -55.5236 2.79412 424.654 -55.5236 2.79412 424.654
1715 1 -57.1903 2.76094 426.57 -57.1903 2.76094 426.57
1712 1 -58.8566 2.72756 428.487 -58.8566 2.72756 428.487
1708 1 -60.5226 2.69404 430.404 -60.5226 2.69404 430.404
1747 1 -37.9284 1.97149 429.655 -37.9284 1.97149 429.655
1449 1 -44.442 2.8489 421.379 -44.442 2.8489 421.379
1445 1 -46.1102 2.81655 423.295 -46.1102 2.81655 423.295
1442 1 -47.778 2.78396 425.21 -47.778 2.78396 425.21
1728 1 -49.4454 2.75111 427.126 -49.4454 2.75111 427.126
1726 1 -51.1122 2.71802 429.042 -51.1122 2.71802 429.042
2010 1 -52.7786 2.68473 430.958 -52.7786 2.68473 430.958
2007 1 -54.4446 2.65128 432.875 -54.4446 2.65128 432.875
1456 1 -40.0328 2.77448 425.77 -40.0328 2.77448 425.77
1741 1 -41.701 2.74208 427.685 -41.701 2.74208 427.685
1738 1 -43.3686 2.70939 429.6 -43.3686 2.70939 429.6
2024 1 -45.0356 2.67643 431.516 -45.0356 2.67643 431.516
2021 1 -46.7021 2.64325 433.432 -46.7021 2.64325 433.432
2035 1 -38.9606 2.63611 433.991 -38.9606 2.63611 433.991
1754 1 -34.5911 2.03561 425.827 -34.5911 2.03561 425.827
1423 1 -58.465 1.36947 421.729 -58.465 1.36947 421.729
1420 1 -60.1317 1.33641 423.645 -60.1317 1.33641 423.645
2044 1 -33.5218 1.89894 434.048 -33.5218 1.89894 434.048
1437 1 -50.7185 1.35862 422.284 -50.7185 1.35862 422.284
1434 1 -52.386 1.32584 424.2 -52.386 1.32584 424.2
1721 1 -54.053 1.29283 426.116 -54.053 1.29283 426.116
1717 1 -55.7197 1.25961 428.033 -55.7197 1.25961 428.033
1714 1 -57.3859 1.2262 429.95 -57.3859 1.2262 429.95
1999 1 -59.0518 1.19267 431.867 -59.0518 1.19267 431.867
1997 1 -60.7174 1.15908 433.784 -60.7174 1.15908 433.784
1164 1 -41.3035 1.38023 420.928 -41.3035 1.38023 420.928
1451 1 -42.9721 1.34812 422.843 -42.9721 1.34812 422.843
1448 1 -44.6403 1.31575 424.758 -44.6403 1.31575 424.758
1734 1 -46.308 1.28312 426.673 -46.308 1.28312 426.673
1731 1 -47.9753 1.25023 428.589 -47.9753 1.25023 428.589
2016 1 -49.642 1.21711 430.505 -49.642 1.21711 430.505
2012 1 -51.3083 1.18379 432.421 -51.3083 1.18379 432.421
2009 1 -52.9741 1.15032 434.338 -52.9741 1.15032 434.338
1746 1 -38.5634 1.27414 427.234 -38.5634 1.27414 427.234
1744 1 -40.2316 1.24173 429.148 -40.2316 1.24173 429.148
2030 1 -41.8991 1.20902 431.064 -41.8991 1.20902 431.064
2027 1 -43.566 1.17604 432.979 -43.566 1.17604 432.979
2325 1 -37.4916 1.13607 435.456 -37.4916 1.13607 435.456
1749 1 -37.0943 4.20137 428.698 -37.0943 4.20137 428.698
1425 1 -56.9942 4.29549 423.191 -56.9942 4.29549 423.191
1736 1 -44.8382 4.2099 428.136 -44.8382 4.2099 428.136
1142 1 -54.4934 2.131 420.317 -54.4934 2.131 420.317
1720 1 -54.2491 4.18583 429.496 -54.2491 4.18583 429.496
2005 1 -55.9152 4.1524 431.412 -55.9152 4.1524 431.412
2002 1 -57.5809 4.11886 433.329 -57.5809 4.11886 433.329
1169 1 -38.1647 4.33888 420.478 -38.1647 4.33888 420.478
1723 1 -52.5826 4.21909 427.579 -52.5826 4.21909 427.579
1440 1 -49.2482 4.28495 423.747 -49.2482 4.28495 423.747
1733 1 -46.5054 4.17698 430.052 -46.5054 4.17698 430.052
2018 1 -48.172 4.14382 431.968 -48.172 4.14382 431.968
2015 1 -49.8381 4.11048 433.885 -49.8381 4.11048 433.885
2036 1 -38.7623 4.16896 430.612 -38.7623 4.16896 430.612
2032 1 -40.4298 4.13623 432.527 -40.4298 4.13623 432.527
2326 1 -36.856 1.83332 437.878 -36.856 1.83332 437.878
1752 1 -35.4256 4.23344 426.784 -35.4256 4.23344 426.784
1457 1 -39.8337 4.30706 422.392 -39.8337 4.30706 422.392
2043 1 -34.1564 1.20128 431.626 -34.1564 1.20128 431.626
2286 1 -60.079 1.85475 436.205 -60.079 1.85475 436.205
2319 1 -40.8238 1.06973 439.287 -40.8238 1.06973 439.287
1436 1 -50.9156 4.25214 425.663 -50.9156 4.25214 425.663
1422 1 -58.661 4.26236 425.108 -58.661 4.26236 425.108
1173 1 -35.8604 0.640422 420.985 -35.8604 0.640422 420.985
2293 1 -56.3043 1.08315 438.172 -56.3043 1.08315 438.172
2289 1 -58.6078 0.353615 437.668 -58.6078 0.353615 437.668
2295 1 -54.8334 4.00982 439.635 -54.8334 4.00982 439.635
1465 1 -35.2257 1.33797 423.406 -35.2257 1.33797 423.406
2315 1 -43.1259 0.339414 438.781 -43.1259 0.339414 438.781
2331 1 -34.3556 4.09639 435.005 -34.3556 4.09639 435.005
2297 1 -54.0011 1.81289 438.677 -54.0011 1.81289 438.677
2324 1 -37.689 4.03046 438.835 -37.689 4.03046 438.835
2306 1 -48.5631 1.07596 438.728 -48.5631 1.07596 438.728
2285 1 -60.2726 0.320095 439.585 -60.2726 0.320095 439.585
1462 1 -36.8948 1.30622 425.32 -36.8948 1.30622 425.32
1751 1 -35.6252 2.70128 430.162 -35.6252 2.70128 430.162
2329 1 -35.1893 1.8663 435.962 -35.1893 1.8663 435.962
2042 1 -34.9905 3.39884 432.583 -34.9905 3.39884 432.583
2041 1 -35.8244 1.16885 433.541 -35.8244 1.16885 433.541
2593 1 -49.3955 3.27291 439.687 -49.3955 3.27291 439.687
2328 1 -35.3872 0.333401 439.342 -35.3872 0.333401 439.342
2301 1 -51.6981 2.54282 439.182 -51.6981 2.54282 439.182
1466 1 -34.3909 3.56745 422.449 -34.3909 3.56745 422.449
2298 1 -53.8068 3.34727 435.297 -53.8068 3.34727 435.297
2321 1 -39.991 3.30012 438.329 -39.991 3.30012 438.329
2313 1 -44.5955 1.8396 437.317 -44.5955 1.8396 437.317
2294 1 -55.4719 3.31368 437.213 -55.4719 3.31368 437.213
2304 1 -50.0333 2.57638 437.265 -50.0333 2.57638 437.265
2300 1 -52.3362 1.84648 436.76 -52.3362 1.84648 436.76
2290 1 -57.7753 2.58413 436.709 -57.7753 2.58413 436.709
2318 1 -41.4603 0.372744 436.865 -41.4603 0.372744 436.865
2327 1 -36.0228 4.06357 436.92 -36.0228 4.06357 436.92
2004 1 -56.1101 2.61773 434.792 -56.1101 2.61773 434.792
2013 1 -50.6709 1.88002 434.843 -50.6709 1.88002 434.843
2288 1 -59.2464 4.08527 435.246 -59.2464 4.08527 435.246
2037 1 -38.127 0.438796 433.034 -38.127 0.438796 433.034
1739 1 -43.1705 4.24256 426.221 -43.1705 4.24256 426.221
1753 1 -34.791 0.503619 429.205 -34.791 0.503619 429.205
2307 1 -48.368 2.60988 435.348 -48.368 2.60988 435.348
2314 1 -43.7627 4.07 436.359 -43.7627 4.07 436.359
2040 1 -36.4593 0.471386 431.119 -36.4593 0.471386 431.119
2320 1 -40.6273 2.60307 435.907 -40.6273 2.60307 435.907
2292 1 -56.9428 0.387203 435.751 -56.9428 0.387203 435.751
2311 1 -46.0652 3.33989 435.853 -46.0652 3.33989 435.853
2302 1 -51.5036 4.07699 435.801 -51.5036 4.07699 435.801
2296 1 -54.6394 1.11675 436.255 -54.6394 1.11675 436.255
1463 1 -36.6951 2.83837 421.942 -36.6951 2.83837 421.942
2287 1 -59.4402 2.55057 438.626 -59.4402 2.55057 438.626
2291 1 -57.1367 3.28009 439.131 -57.1367 3.28009 439.131
2317 1 -42.2932 2.56982 437.823 -42.2932 2.56982 437.823
2038 1 -37.2933 2.66886 432.076 -37.2933 2.66886 432.076
2305 1 -49.2007 0.37942 436.306 -49.2007 0.37942 436.306
2332 1 -33.7207 0.366429 437.427 -33.7207 0.366429 437.427
1709 1 -60.3274 4.22901 427.024 -60.3274 4.22901 427.024
1468 1 -33.5561 1.36939 421.493 -33.5561 1.36939 421.493
1454 1 -41.5023 4.27495 424.306 -41.5023 4.27495 424.306
1429 1 -55.3271 4.32837 421.275 -55.3271 4.32837 421.275
1133 1 -59.9357 2.87102 420.266 -59.9357 2.87102 420.266
1175 1 -35.0257 2.86986 420.028 -35.0257 2.86986 420.028
2616 1 -36.4162 0.997202 443.68 -36.4162 0.997202 443.68
2901 1 -38.0803 0.963756 445.597 -38.0803 0.963756 445.597
2907 1 -34.9472 3.92469 445.145 -34.9472 3.92469 445.145
3194 1 -35.9729 0.160741 449.485 -35.9729 0.160741 449.485
2587 1 -52.5304 0.312297 440.14 -52.5304 0.312297 440.14
2597 1 -47.093 4.00313 440.192 -47.093 4.00313 440.192
2584 1 -54.1946 0.278736 442.057 -54.1946 0.278736 442.057
2581 1 -55.8584 0.245262 443.974 -55.8584 0.245262 443.974
2868 1 -57.522 0.211949 445.891 -57.522 0.211949 445.891
2865 1 -59.1853 0.178872 447.808 -59.1853 0.178872 447.808
2601 1 -44.7908 0.305977 440.698 -44.7908 0.305977 440.698
2598 1 -46.4551 0.272505 442.615 -46.4551 0.272505 442.615
2885 1 -48.1188 0.23906 444.532 -48.1188 0.23906 444.532
2882 1 -49.782 0.205704 446.449 -49.782 0.205704 446.449
2879 1 -51.4448 0.172503 448.366 -51.4448 0.172503 448.366
2612 1 -38.7176 0.266733 443.174 -38.7176 0.266733 443.174
2898 1 -40.3817 0.233301 445.091 -40.3817 0.233301 445.091
2895 1 -42.045 0.199915 447.008 -42.045 0.199915 447.008
3180 1 -43.7077 0.166631 448.925 -43.7077 0.166631 448.925
2576 1 -58.8012 3.24658 441.048 -58.8012 3.24658 441.048
2574 1 -60.4655 3.21322 442.965 -60.4655 3.21322 442.965
2589 1 -51.0598 3.23936 441.604 -51.0598 3.23936 441.604
2586 1 -52.7237 3.20585 443.521 -52.7237 3.20585 443.521
2874 1 -54.3871 3.17243 445.438 -54.3871 3.17243 445.438
2871 1 -56.0503 3.13918 447.355 -56.0503 3.13918 447.355
3155 1 -57.7132 3.10616 449.271 -57.7132 3.10616 449.271
2607 1 -41.6564 3.26677 440.245 -41.6564 3.26677 440.245
2604 1 -43.321 3.23333 442.162 -43.321 3.23333 442.162
2600 1 -44.985 3.19989 444.079 -44.985 3.19989 444.079
2887 1 -46.6484 3.1665 445.996 -46.6484 3.1665 445.996
2884 1 -48.3113 3.13323 447.913 -48.3113 3.13323 447.913
3168 1 -49.9737 3.10014 449.83 -49.9737 3.10014 449.83
2900 1 -38.9121 3.16077 446.555 -38.9121 3.16077 446.555
2897 1 -40.575 3.12743 448.473 -40.575 3.12743 448.473
2582 1 -55.6656 1.77931 440.594 -55.6656 1.77931 440.594
2579 1 -57.3298 1.74581 442.511 -57.3298 1.74581 442.511
2866 1 -58.9937 1.71246 444.428 -58.9937 1.71246 444.428
2578 1 -57.969 1.0496 440.089 -57.969 1.0496 440.089
2595 1 -47.9252 1.77265 441.151 -47.9252 1.77265 441.151
2592 1 -49.5893 1.73915 443.068 -49.5893 1.73915 443.068
2880 1 -51.2528 1.7057 444.985 -51.2528 1.7057 444.985
2877 1 -52.9159 1.67238 446.902 -52.9159 1.67238 446.902
2873 1 -54.5787 1.63925 448.819 -54.5787 1.63925 448.819
2609 1 -40.187 1.76673 441.71 -40.187 1.76673 441.71
2606 1 -41.8513 1.7333 443.626 -41.8513 1.7333 443.626
2892 1 -43.515 1.69988 445.543 -43.515 1.69988 445.543
2890 1 -45.1781 1.66654 447.46 -45.1781 1.66654 447.46
3174 1 -46.8406 1.63333 449.378 -46.8406 1.63333 449.378
2618 1 -35.5839 3.22764 442.722 -35.5839 3.22764 442.722
2585 1 -53.3625 2.50924 441.098 -53.3625 2.50924 441.098
2583 1 -55.0265 2.47571 443.016 -55.0265 2.47571 443.016
2870 1 -56.6902 2.44231 444.932 -56.6902 2.44231 444.932
2867 1 -58.3536 2.4091 446.849 -58.3536 2.4091 446.849
2863 1 -60.0169 2.37617 448.766 -60.0169 2.37617 448.766
2599 1 -45.623 2.50297 441.656 -45.623 2.50297 441.656
2596 1 -47.287 2.4695 443.573 -47.287 2.4695 443.573
2883 1 -48.9505 2.43609 445.49 -48.9505 2.43609 445.49
2881 1 -50.6135 2.40281 447.407 -50.6135 2.40281 447.407
3164 1 -52.276 2.36971 449.324 -52.276 2.36971 449.324
2610 1 -39.5497 2.46374 444.132 -39.5497 2.46374 444.132
2896 1 -41.2134 2.43032 446.049 -41.2134 2.43032 446.049
2893 1 -42.8764 2.39698 447.966 -42.8764 2.39698 447.966
3178 1 -44.5388 2.36376 449.884 -44.5388 2.36376 449.884
2575 1 -59.6334 1.01615 442.006 -59.6334 1.01615 442.006
2591 1 -50.2277 1.04241 440.645 -50.2277 1.04241 440.645
2588 1 -51.8918 1.00887 442.562 -51.8918 1.00887 442.562
2876 1 -53.5554 0.975394 444.479 -53.5554 0.975394 444.479
2872 1 -55.2187 0.94205 446.396 -55.2187 0.94205 446.396
2869 1 -56.8817 0.90891 448.313 -56.8817 0.90891 448.313
2605 1 -42.4888 1.03633 441.204 -42.4888 1.03633 441.204
2602 1 -44.1531 1.00288 443.12 -44.1531 1.00288 443.12
2889 1 -45.8168 0.969459 445.037 -45.8168 0.969459 445.037
2886 1 -47.4799 0.93612 446.955 -47.4799 0.93612 446.955
3170 1 -49.1426 0.90293 448.872 -49.1426 0.90293 448.872
2899 1 -39.7436 0.93036 447.514 -39.7436 0.93036 447.514
3184 1 -41.4063 0.89708 449.431 -41.4063 0.89708 449.431
2580 1 -56.4977 3.97627 441.552 -56.4977 3.97627 441.552
2577 1 -58.1618 3.94284 443.469 -58.1618 3.94284 443.469
2864 1 -59.8256 3.9096 445.386 -59.8256 3.9096 445.386
2862 1 -60.6575 1.67936 446.345 -60.6575 1.67936 446.345
2594 1 -48.7573 3.96962 442.109 -48.7573 3.96962 442.109
2590 1 -50.4211 3.93614 444.026 -50.4211 3.93614 444.026
2878 1 -52.0844 3.90275 445.943 -52.0844 3.90275 445.943
2875 1 -53.7473 3.86951 447.86 -53.7473 3.86951 447.86
3159 1 -55.4099 3.8365 449.777 -55.4099 3.8365 449.777
2611 1 -39.3545 3.99716 440.751 -39.3545 3.99716 440.751
2608 1 -41.0192 3.96374 442.668 -41.0192 3.96374 442.668
2894 1 -42.6832 3.93031 444.585 -42.6832 3.93031 444.585
2891 1 -44.3466 3.89692 446.502 -44.3466 3.89692 446.502
2888 1 -46.0094 3.86364 448.419 -46.0094 3.86364 448.419
2904 1 -36.6109 3.89121 447.062 -36.6109 3.89121 447.062
2621 1 -33.9185 3.26097 440.806 -33.9185 3.26097 440.806
2617 1 -36.2201 2.53052 440.3 -36.2201 2.53052 440.3
2614 1 -37.8853 2.49717 442.216 -37.8853 2.49717 442.216
2908 1 -34.31 0.194201 447.568 -34.31 0.194201 447.568
2619 1 -34.7513 1.0306 441.764 -34.7513 1.0306 441.764
2906 1 -35.1416 2.39118 448.527 -35.1416 2.39118 448.527
2905 1 -35.7792 1.69421 446.103 -35.7792 1.69421 446.103
2620 1 -34.115 1.7277 444.187 -34.115 1.7277 444.187
3190 1 -38.2739 3.85783 448.979 -38.2739 3.85783 448.979
2902 1 -37.4425 1.66078 448.02 -37.4425 1.66078 448.02
2903 1 -37.2484 3.1942 444.639 -37.2484 3.1942 444.639
2615 1 -37.0528 0.300133 441.258 -37.0528 0.300133 441.258
2909 1 -33.4782 2.4247 446.61 -33.4782 2.4247 446.61
14 1 -52.5391 0.290054 399.208 -52.5391 4.71751 399.208
7 1 -57.0283 3.23806 398.319 -57.0283 3.23806 398.319
25 1 -44.7478 0.289497 399.685 -44.7478 4.71695 399.685
38 1 -36.9505 0.224318 400.191 -36.9505 4.65177 400.191
23 1 -46.4105 0.238794 401.589 -46.4105 4.66625 401.589
287 1 -49.7364 0.16609 405.397 -49.7364 4.59354 405.397
878 1 -40.9059 0.0179645 414.172 -40.9059 4.44542 414.172
579 1 -46.9876 0.0624605 411.699 -46.9876 4.48991 411.699
585 1 -43.6505 0.125686 407.869 -43.6505 4.55314 407.869
290 1 -48.0743 0.200924 403.486 -48.0743 4.62838 403.486
11 1 -54.1563 0.228777 401.056 -54.1563 4.65623 401.056
595 1 -37.5675 0.080765 410.344 -37.5675 4.50822 410.344
1134 1 -59.7394 4.40529 416.888 -59.7394 4.40529 416.888
283 1 -51.4027 0.135045 407.31 -51.4027 4.5625 407.31
582 1 -45.3191 0.0941082 409.784 -45.3191 4.52156 409.784
276 1 -55.8303 0.214649 402.933 -55.8303 4.6421 402.933
569 1 -53.0696 0.104786 409.224 -53.0696 4.53224 409.224
847 1 -58.0719 0.00993971 414.972 -58.0719 4.43739 414.972
556 1 -60.8182 0.120597 408.671 -60.8182 4.54805 408.671
272 1 -57.4888 0.186339 404.839 -57.4888 4.61379 404.839
3 1 -58.8448 3.24048 400.021 -58.8448 3.24048 400.021
35 1 -38.6343 0.213959 402.114 -38.6343 4.64141 402.114
598 1 -35.8976 0.111636 408.431 -35.8976 4.53909 408.431
850 1 -56.4041 0.0416348 413.056 -56.4041 4.46909 413.056