ITEM: TIMESTEP
0
ITEM: NUMBER OF ATOMS
4630
ITEM: BOX BOUNDS xy xz yz pp pp pp
-5.9140988501799995e+01 1.0216002035000000e+02 0.0000000000000000e+00
0.0000000000000000e+00 4.4274527100805940e+00 0.0000000000000000e+00
3.8000000000000000e+02 5.0000000000000000e+02 0.0000000000000000e+00
ITEM: ATOMS id type x y z xu yu zu
27 1 -43.0416 2.64148 398.455 -43.0416 2.64148 398.455
36 1 -37.6395 1.89245 398.436 -37.6395 1.89245 398.436
31 1 -40.675 3.30696 398.859 -40.675 3.30696 398.859
22 1 -46.1074 4.06458 398.916 -46.1074 4.06458 398.916
20 1 -46.884 1.85113 399.809 -46.884 1.85113 399.809
40 1 -35.2758 2.5608 398.847 -35.2758 2.5608 398.847
34 1 -38.3987 4.09475 399.32 -38.3987 4.09475 399.32
17 1 -49.1678 1.0846 399.36 -49.1678 1.0846 399.36
9 1 -54.5169 1.7605 399.353 -54.5169 1.7605 399.353
43 1 -33.0026 3.35012 399.313 -33.0026 3.35012 399.313
12 1 -52.2785 2.61782 399.843 -52.2785 2.61782 399.843
5 1 -56.8775 1.14713 398.944 -56.8775 1.14713 398.944
29 1 -41.4863 1.08361 399.748 -41.4863 1.08361 399.748
853 1 -53.6154 3.0435 414.416 -53.6154 3.0435 414.416
873 1 -42.8571 1.56078 414.374 -42.8571 1.56078 414.374
865 1 -46.7601 0.795859 415.848 -46.7601 0.795859 415.848
1174 1 -34.5245 2.23494 417.269 -34.5245 2.23494 417.269
883 1 -37.477 0.819191 414.358 -37.477 0.819191 414.358
863 1 -48.2368 2.30259 414.395 -48.2368 2.30259 414.395
315 1 -33.1452 1.77691 402.682 -33.1452 1.77691 402.682
307 1 -37.8683 3.21689 405.119 -37.8683 3.21689 405.119
1150 1 -48.3777 0.756952 417.799 -48.3777 0.756952 417.799
855 1 -52.1391 1.53704 415.869 -52.1391 1.53704 415.869
310 1 -36.2498 3.25264 403.175 -36.2498 3.25264 403.175
871 1 -43.6659 3.75533 415.349 -43.6659 3.75533 415.349
16 1 -49.9643 3.29007 400.255 -49.9643 3.29007 400.255
309 1 -36.3876 1.70984 406.572 -36.3876 1.70984 406.572
1156 1 -45.2837 3.71673 417.301 -45.2837 3.71673 417.301
867 1 -45.9513 3.02892 414.872 -45.9513 3.02892 414.872
1159 1 -42.9986 0.0160394 417.779 -42.9986 4.44349 417.779
1168 1 -37.6193 3.70292 417.763 -37.6193 3.70292 417.763
1170 1 -36.8099 1.50815 416.788 -36.8099 1.50815 416.788
594 1 -37.1967 3.90577 407.547 -37.1967 3.90577 407.547
37 1 -36.9125 2.5506 400.752 -36.9125 2.5506 400.752
851 1 -54.4238 0.810415 415.392 -54.4238 0.810415 415.392
857 1 -51.3305 3.77026 414.894 -51.3305 3.77026 414.894
592 1 -38.0055 1.67377 408.522 -38.0055 1.67377 408.522
849 1 -55.2323 3.00469 416.368 -55.2323 3.00469 416.368
877 1 -40.5716 2.28735 414.853 -40.5716 2.28735 414.853
1143 1 -52.9476 3.73121 416.845 -52.9476 3.73121 416.845
1140 1 -54.5648 3.69184 418.797 -54.5648 3.69184 418.797
845 1 -57.5169 2.2787 415.891 -57.5169 2.2787 415.891
875 1 -41.3805 0.0545122 415.828 -41.3805 4.48196 415.828
886 1 -35.8588 0.856565 412.408 -35.8588 0.856565 412.408
891 1 -32.7629 3.81457 411.916 -32.7629 3.81457 411.916
39 1 -35.4451 1.05497 402.199 -35.4451 1.05497 402.199
1177 1 -33.0487 0.729333 418.725 -33.0487 0.729333 418.725
1167 1 -38.4286 1.47012 418.737 -38.4286 1.47012 418.737
8 1 -55.3565 4.03186 400.356 -55.3565 4.03186 400.356
869 1 -44.4748 1.52234 416.325 -44.4748 1.52234 416.325
1136 1 -56.8493 2.96536 418.32 -56.8493 2.96536 418.32
1162 1 -41.5228 2.93746 419.233 -41.5228 2.93746 419.233
15 1 -50.7844 1.07238 401.274 -50.7844 1.07238 401.274
280 1 -52.3958 1.04244 403.226 -52.3958 1.04244 403.226
277 1 -54.0114 1.01717 405.175 -54.0114 1.01717 405.175
273 1 -55.6223 0.979726 407.13 -55.6223 0.979726 407.13
560 1 -57.2379 0.943353 409.083 -57.2379 0.943353 409.083
557 1 -58.8544 0.906337 411.034 -58.8544 0.906337 411.034
26 1 -43.1134 1.07031 401.713 -43.1134 1.07031 401.713
294 1 -44.7328 1.04077 403.68 -44.7328 1.04077 403.68
291 1 -46.3481 1.00395 405.634 -46.3481 1.00395 405.634
576 1 -47.9617 0.965011 407.586 -47.9617 0.965011 407.586
573 1 -49.576 0.926547 409.537 -49.576 0.926547 409.537
570 1 -51.1909 0.887775 411.489 -51.1909 0.887775 411.489
854 1 -52.807 0.849067 413.44 -52.807 0.849067 413.44
305 1 -38.6764 0.985119 406.092 -38.6764 0.985119 406.092
589 1 -40.2928 0.948065 408.042 -40.2928 0.948065 408.042
586 1 -41.9091 0.910556 409.993 -41.9091 0.910556 409.993
872 1 -43.5257 0.872668 411.944 -43.5257 0.872668 411.944
599 1 -34.2403 0.893233 410.46 -34.2403 0.893233 410.46
4 1 -56.9797 4.04339 402.254 -56.9797 4.04339 402.254
268 1 -58.5767 3.99829 404.232 -58.5767 3.99829 404.232
1152 1 -47.5689 2.99017 416.823 -47.5689 2.99017 416.823
19 1 -47.7036 4.03738 400.797 -47.7036 4.03738 400.797
286 1 -49.3107 4.00037 402.715 -49.3107 4.00037 402.715
282 1 -50.917 3.96615 404.672 -50.917 3.96615 404.672
279 1 -52.5307 3.93481 406.625 -52.5307 3.93481 406.625
565 1 -54.1441 3.89867 408.58 -54.1441 3.89867 408.58
563 1 -55.76 3.86201 410.534 -55.76 3.86201 410.534
846 1 -57.3768 3.82495 412.486 -57.3768 3.82495 412.486
32 1 -40.0234 4.03607 401.247 -40.0234 4.03607 401.247
300 1 -41.6396 3.99931 403.187 -41.6396 3.99931 403.187
297 1 -43.2534 3.96176 405.136 -43.2534 3.96176 405.136
293 1 -44.8678 3.92456 407.087 -44.8678 3.92456 407.087
578 1 -46.4825 3.88646 409.039 -46.4825 3.88646 409.039
575 1 -48.0979 3.84803 410.99 -48.0979 3.84803 410.99
860 1 -49.7139 3.80922 412.942 -49.7139 3.80922 412.942
591 1 -38.8141 3.86899 409.497 -38.8141 3.86899 409.497
588 1 -40.4312 3.83152 411.447 -40.4312 3.83152 411.447
874 1 -42.0484 3.7936 413.398 -42.0484 3.7936 413.398
10 1 -53.8834 2.54463 401.78 -53.8834 2.54463 401.78
274 1 -55.4971 2.53174 403.719 -55.4971 2.53174 403.719
271 1 -57.1011 2.48948 405.681 -57.1011 2.48948 405.681
558 1 -58.7164 2.45298 407.632 -58.7164 2.45298 407.632
24 1 -44.6215 2.59501 400.327 -44.6215 2.59501 400.327
21 1 -46.2274 2.54984 402.24 -46.2274 2.54984 402.24
288 1 -47.8322 2.51028 404.184 -47.8322 2.51028 404.184
285 1 -49.4412 2.46895 406.133 -49.4412 2.46895 406.133
571 1 -51.0539 2.43131 408.083 -51.0539 2.43131 408.083
568 1 -52.6678 2.39317 410.035 -52.6678 2.39317 410.035
852 1 -54.2834 2.3552 411.987 -54.2834 2.3552 411.987
848 1 -55.9001 2.31729 413.939 -55.9001 2.31729 413.939
306 1 -38.538 2.52344 402.689 -38.538 2.52344 402.689
302 1 -40.1564 2.49043 404.635 -40.1564 2.49043 404.635
299 1 -41.772 2.45411 406.587 -41.772 2.45411 406.587
583 1 -43.3877 2.41714 408.539 -43.3877 2.41714 408.539
581 1 -45.0036 2.37942 410.491 -45.0036 2.37942 410.491
866 1 -46.62 2.34122 412.443 -46.62 2.34122 412.443
880 1 -38.9539 2.32529 412.902 -38.9539 2.32529 412.902
312 1 -34.7682 1.74461 404.625 -34.7682 1.74461 404.625
2 1 -58.4853 1.16367 400.849 -58.4853 1.16367 400.849
13 1 -51.582 3.26674 402.23 -51.582 3.26674 402.23
278 1 -53.203 3.24446 404.191 -53.203 3.24446 404.191
275 1 -54.8156 3.2123 406.15 -54.8156 3.2123 406.15
562 1 -56.4294 3.17508 408.106 -56.4294 3.17508 408.106
559 1 -58.0461 3.13874 410.059 -58.0461 3.13874 410.059
1166 1 -39.238 3.66468 419.712 -39.238 3.66468 419.712
889 1 -33.5725 1.58264 412.89 -33.5725 1.58264 412.89
28 1 -42.3086 3.29984 400.766 -42.3086 3.29984 400.766
296 1 -43.9273 3.27065 402.708 -43.9273 3.27065 402.708
292 1 -45.5418 3.23647 404.659 -45.5418 3.23647 404.659
289 1 -47.1549 3.19835 406.61 -47.1549 3.19835 406.61
574 1 -48.7687 3.15958 408.562 -48.7687 3.15958 408.562
572 1 -50.3833 3.12096 410.513 -50.3833 3.12096 410.513
856 1 -51.9989 3.08213 412.465 -51.9989 3.08213 412.465
303 1 -39.4849 3.18031 407.067 -39.4849 3.18031 407.067
587 1 -41.101 3.14304 409.017 -41.101 3.14304 409.017
584 1 -42.7174 3.10537 410.969 -42.7174 3.10537 410.969
870 1 -44.3342 3.06732 412.92 -44.3342 3.06732 412.92
6 1 -56.1751 1.84074 401.27 -56.1751 1.84074 401.27
270 1 -57.7719 1.80336 403.247 -57.7719 1.80336 403.247
890 1 -32.9053 2.27207 415.321 -32.9053 2.27207 415.321
18 1 -48.5029 1.80564 401.748 -48.5029 1.80564 401.748
284 1 -50.1106 1.77031 403.699 -50.1106 1.77031 403.699
281 1 -51.724 1.73782 405.651 -51.724 1.73782 405.651
567 1 -53.3373 1.70353 407.604 -53.3373 1.70353 407.604
564 1 -54.9519 1.66661 409.558 -54.9519 1.66661 409.558
561 1 -56.5684 1.6299 411.51 -56.5684 1.6299 411.51
844 1 -58.1852 1.59224 413.462 -58.1852 1.59224 413.462
33 1 -39.2263 1.84261 400.305 -39.2263 1.84261 400.305
30 1 -40.8387 1.80157 402.209 -40.8387 1.80157 402.209
298 1 -42.4469 1.76593 404.158 -42.4469 1.76593 404.158
295 1 -44.0605 1.72945 406.111 -44.0605 1.72945 406.111
580 1 -45.6751 1.69181 408.063 -45.6751 1.69181 408.063
577 1 -47.2901 1.65353 410.014 -47.2901 1.65353 410.014
862 1 -48.9058 1.61493 411.966 -48.9058 1.61493 411.966
590 1 -39.6226 1.63661 410.472 -39.6226 1.63661 410.472
876 1 -41.2397 1.59889 412.423 -41.2397 1.59889 412.423
1163 1 -40.7136 0.743017 418.258 -40.7136 0.743017 418.258
1153 1 -46.9017 3.6778 419.252 -46.9017 3.6778 419.252
311 1 -35.5774 3.94133 405.598 -35.5774 3.94133 405.598
42 1 -33.8281 1.09797 400.298 -33.8281 1.09797 400.298
1135 1 -57.6577 0.731727 419.296 -57.6577 0.731727 419.296
1171 1 -36.1436 2.19726 419.218 -36.1436 2.19726 419.218
1139 1 -55.3734 1.45825 419.773 -55.3734 1.45825 419.773
601 1 -33.4308 3.12495 409.486 -33.4308 3.12495 409.486
313 1 -33.9546 3.97596 403.649 -33.9546 3.97596 403.649
858 1 -50.5221 1.57601 413.918 -50.5221 1.57601 413.918
868 1 -45.1427 0.834441 413.896 -45.1427 0.834441 413.896
1147 1 -50.6627 0.0303859 417.322 -50.6627 4.45784 417.322
843 1 -58.9934 3.78665 414.438 -58.9934 3.78665 414.438
593 1 -37.3363 2.36276 410.952 -37.3363 2.36276 410.952
308 1 -37.0592 1.02044 404.143 -37.0592 1.02044 404.143
861 1 -49.0454 0.0694345 415.371 -49.0454 4.49689 415.371
1158 1 -43.8077 2.2104 418.754 -43.8077 2.2104 418.754
884 1 -36.6679 3.05168 413.383 -36.6679 3.05168 413.383
881 1 -38.2861 3.01403 415.332 -38.2861 3.01403 415.332
885 1 -36.0006 3.74071 415.813 -36.0006 3.74071 415.813
859 1 -49.854 2.26366 416.346 -49.854 2.26366 416.346
596 1 -35.7184 2.39955 409.003 -35.7184 2.39955 409.003
879 1 -39.0952 0.781307 416.307 -39.0952 0.781307 416.307
1172 1 -35.334 4.42989 418.243 -35.334 4.42989 418.243
1154 1 -46.0927 1.48358 418.276 -46.0927 1.48358 418.276
887 1 -35.1912 1.54569 414.839 -35.1912 1.54569 414.839
597 1 -35.0496 3.08873 411.434 -35.0496 3.08873 411.434
1161 1 -42.1895 2.24904 416.803 -42.1895 2.24904 416.803
1138 1 -56.0408 0.771374 417.344 -56.0408 0.771374 417.344
1149 1 -49.1866 2.95111 418.775 -49.1866 2.95111 418.775
41 1 -34.6288 3.28944 401.239 -34.6288 3.28944 401.239
888 1 -34.3819 3.77798 413.864 -34.3819 3.77798 413.864
1165 1 -39.9044 2.97594 417.283 -39.9044 2.97594 417.283
1141 1 -53.7562 1.49785 417.821 -53.7562 1.49785 417.821
1145 1 -51.4715 2.22448 418.298 -51.4715 2.22448 418.298
600 1 -34.0998 2.43541 407.056 -34.0998 2.43541 407.056
1148 1 -49.9954 0.717722 419.751 -49.9954 0.717722 419.751
882 1 -38.1451 0.130369 411.927 -38.1451 4.55782 411.927
1157 1 -44.6168 4.40468 419.73 -44.6168 4.40468 419.73
1144 1 -52.2802 4.41849 419.274 -52.2802 4.41849 419.274
602 1 -32.621 0.928965 408.512 -32.621 0.928965 408.512
1755 1 -32.6744 2.76084 427.963 -32.6744 2.76084 427.963
1460 1 -37.0974 2.84826 423.597 -37.0974 2.84826 423.597
2308 1 -46.1384 3.29665 437.734 -46.1384 3.29665 437.734
2316 1 -41.4321 1.87368 435.284 -41.4321 1.87368 435.284
2312 1 -43.8562 4.026 438.212 -43.8562 4.026 438.212
1464 1 -34.813 3.57601 424.078 -34.813 3.57601 424.078
1461 1 -36.2877 0.653741 422.623 -36.2877 0.653741 422.623
2039 1 -35.2496 3.37251 434.291 -35.2496 3.37251 434.291
2613 1 -37.0111 1.7874 439.648 -37.0111 1.7874 439.648
1467 1 -32.5285 4.3037 424.559 -32.5285 4.3037 424.559
2603 1 -42.3819 2.52125 439.667 -42.3819 2.52125 439.667
1443 1 -46.235 4.36553 421.681 -46.235 4.36553 421.681
1748 1 -36.4326 3.53756 426.027 -36.4326 3.53756 426.027
2023 1 -43.7145 1.14446 434.805 -43.7145 1.14446 434.805
2310 1 -44.6638 1.79169 439.188 -44.6638 1.79169 439.188
1151 1 -47.7107 1.44448 420.228 -47.7107 1.44448 420.228
2303 1 -49.2284 0.333265 438.232 -49.2284 0.333265 438.232
2299 1 -51.5114 4.03203 437.755 -51.5114 4.03203 437.755
2033 1 -38.3411 0.409517 434.787 -38.3411 0.409517 434.787
1433 1 -51.6131 0.678106 421.703 -51.6131 0.678106 421.703
1430 1 -53.2306 0.638069 423.655 -53.2306 0.638069 423.655
1426 1 -54.8479 0.59765 425.607 -54.8479 0.59765 425.607
1713 1 -56.4649 0.556941 427.56 -56.4649 0.556941 427.56
1710 1 -58.0818 0.516064 429.513 -58.0818 0.516064 429.513
2330 1 -33.1125 2.55758 438.177 -33.1125 2.55758 438.177
1160 1 -42.3321 0.70436 420.208 -42.3321 0.70436 420.208
1447 1 -43.9505 0.665335 422.159 -43.9505 0.665335 422.159
1444 1 -45.5689 0.625924 424.11 -45.5689 0.625924 424.11
1730 1 -47.1869 0.586105 426.062 -47.1869 0.586105 426.062
1727 1 -48.8046 0.545888 428.014 -48.8046 0.545888 428.014
1724 1 -50.4218 0.505325 429.966 -50.4218 0.505325 429.966
2008 1 -52.0386 0.464507 431.919 -52.0386 0.464507 431.919
2006 1 -53.6548 0.423552 433.872 -53.6548 0.423552 433.872
1458 1 -37.907 0.615201 424.572 -37.907 0.615201 424.572
1743 1 -39.5261 0.576172 426.522 -39.5261 0.576172 426.522
1740 1 -41.1448 0.536653 428.472 -41.1448 0.536653 428.472
2026 1 -42.7629 0.49666 430.423 -42.7629 0.49666 430.423
2022 1 -44.3804 0.456234 432.375 -44.3804 0.456234 432.375
2019 1 -45.9972 0.415454 434.327 -45.9972 0.415454 434.327
2309 1 -45.3306 1.10349 436.757 -45.3306 1.10349 436.757
1137 1 -56.1819 3.65199 420.749 -56.1819 3.65199 420.749
1421 1 -57.799 3.61168 422.702 -57.799 3.61168 422.702
1439 1 -48.5196 3.63852 421.204 -48.5196 3.63852 421.204
1435 1 -50.1375 3.59884 423.156 -50.1375 3.59884 423.156
1432 1 -51.7551 3.55876 425.108 -51.7551 3.55876 425.108
1719 1 -53.3724 3.5183 427.06 -53.3724 3.5183 427.06
1716 1 -54.9894 3.47758 429.013 -54.9894 3.47758 429.013
2001 1 -56.6061 3.43669 430.966 -56.6061 3.43669 430.966
1998 1 -58.2226 3.39578 432.919 -58.2226 3.39578 432.919
2323 1 -36.8676 3.33244 436.242 -36.8676 3.33244 436.242
1453 1 -40.8568 3.62603 421.663 -40.8568 3.62603 421.663
1450 1 -42.4754 3.58698 423.613 -42.4754 3.58698 423.613
1446 1 -44.0939 3.54752 425.564 -44.0939 3.54752 425.564
1732 1 -45.712 3.50762 427.515 -45.712 3.50762 427.515
1729 1 -47.3296 3.46733 429.467 -47.3296 3.46733 429.467
2014 1 -48.9467 3.42669 431.419 -48.9467 3.42669 431.419
2011 1 -50.5633 3.38581 433.372 -50.5633 3.38581 433.372
1745 1 -38.0518 3.49857 427.977 -38.0518 3.49857 427.977
1742 1 -39.6706 3.45906 429.927 -39.6706 3.45906 429.927
2028 1 -41.2888 3.41904 431.878 -41.2888 3.41904 431.878
2025 1 -42.9061 3.37857 433.829 -42.9061 3.37857 433.829
1427 1 -54.7062 2.14497 422.202 -54.7062 2.14497 422.202
1424 1 -56.3234 2.1046 424.155 -56.3234 2.1046 424.155
1711 1 -57.9405 2.0639 426.107 -57.9405 2.0639 426.107
2322 1 -37.6762 1.09848 437.217 -37.6762 1.09848 437.217
1750 1 -34.9584 2.03265 427.482 -34.9584 2.03265 427.482
1155 1 -45.4259 2.17143 420.705 -45.4259 2.17143 420.705
1441 1 -47.0441 2.13208 422.657 -47.0441 2.13208 422.657
1438 1 -48.6621 2.09234 424.609 -48.6621 2.09234 424.609
1725 1 -50.2797 2.05219 426.561 -50.2797 2.05219 426.561
1722 1 -51.897 2.01169 428.513 -51.897 2.01169 428.513
1718 1 -53.5139 1.97093 430.466 -53.5139 1.97093 430.466
2003 1 -55.1305 1.93002 432.419 -55.1305 1.93002 432.419
2000 1 -56.7466 1.88909 434.372 -56.7466 1.88909 434.372
1459 1 -37.7627 2.15911 421.167 -37.7627 2.15911 421.167
1455 1 -39.3818 2.1205 423.117 -39.3818 2.1205 423.117
1452 1 -41.0006 2.08145 425.067 -41.0006 2.08145 425.067
1737 1 -42.6192 2.04195 427.018 -42.6192 2.04195 427.018
1735 1 -44.2373 2.002 428.969 -44.2373 2.002 428.969
2020 1 -45.8549 1.96163 430.921 -45.8549 1.96163 430.921
2017 1 -47.4718 1.92092 432.873 -47.4718 1.92092 432.873
2034 1 -38.1967 1.95422 431.381 -38.1967 1.95422 431.381
2031 1 -39.8148 1.91419 433.332 -39.8148 1.91419 433.332
2029 1 -40.6236 4.10771 434.308 -40.6236 4.10771 434.308
1146 1 -50.8043 2.91169 420.727 -50.8043 2.91169 420.727
1431 1 -52.4219 2.87187 422.679 -52.4219 2.87187 422.679
1428 1 -54.0393 2.83163 424.631 -54.0393 2.83163 424.631
1715 1 -55.6564 2.79105 426.584 -55.6564 2.79105 426.584
1712 1 -57.2734 2.75024 428.537 -57.2734 2.75024 428.537
1708 1 -58.8902 2.70933 430.489 -58.8902 2.70933 430.489
1747 1 -36.5778 1.99372 429.431 -36.5778 1.99372 429.431
1449 1 -43.1413 2.89862 421.184 -43.1413 2.89862 421.184
1445 1 -44.7597 2.85941 423.135 -44.7597 2.85941 423.135
1442 1 -46.3779 2.81979 425.086 -46.3779 2.81979 425.086
1728 1 -47.9958 2.77977 427.038 -47.9958 2.77977 427.038
1726 1 -49.6132 2.73937 428.99 -49.6132 2.73937 428.99
2010 1 -51.2302 2.69867 430.942 -51.2302 2.69867 430.942
2007 1 -52.8468 2.65777 432.895 -52.8468 2.65777 432.895
1456 1 -38.7166 2.80947 425.547 -38.7166 2.80947 425.547
1741 1 -40.3355 2.7702 427.497 -40.3355 2.7702 427.497
1738 1 -41.9539 2.73044 429.448 -41.9539 2.73044 429.448
2024 1 -43.5717 2.69022 431.399 -43.5717 2.69022 431.399
2021 1 -45.1889 2.64961 433.351 -45.1889 2.64961 433.351
2035 1 -37.5322 2.64334 433.812 -37.5322 2.64334 433.812
1754 1 -33.3385 2.07101 425.534 -33.3385 2.07101 425.534
1423 1 -56.9905 1.41816 421.726 -56.9905 1.41816 421.726
1420 1 -58.6075 1.37764 423.678 -58.6075 1.37764 423.678
2044 1 -32.1573 1.90759 433.797 -32.1573 1.90759 433.797
1437 1 -49.3286 1.40501 422.18 -49.3286 1.40501 422.18
1434 1 -50.9463 1.36512 424.132 -50.9463 1.36512 424.132
1721 1 -52.5638 1.32484 426.084 -52.5638 1.32484 426.084
1717 1 -54.1809 1.28424 428.036 -54.1809 1.28424 428.036
1714 1 -55.7978 1.24342 429.989 -55.7978 1.24342 429.989
1999 1 -57.4144 1.20251 431.942 -57.4144 1.20251 431.942
1997 1 -59.0307 1.16163 433.895 -59.0307 1.16163 433.895
1164 1 -40.0474 1.43168 420.687 -40.0474 1.43168 420.687
1451 1 -41.6661 1.39283 422.638 -41.6661 1.39283 422.638
1448 1 -43.2847 1.35358 424.588 -43.2847 1.35358 424.588
1734 1 -44.903 1.3139 426.54 -44.903 1.3139 426.54
1731 1 -46.5209 1.2738 428.491 -46.5209 1.2738 428.491
2016 1 -48.1382 1.23332 430.443 -48.1382 1.23332 430.443
2012 1 -49.7551 1.19255 432.396 -49.7551 1.19255 432.396
2009 1 -51.3713 1.15158 434.348 -51.3713 1.15158 434.348
1746 1 -37.2423 1.30441 427.002 -37.2423 1.30441 427.002
1744 1 -38.8613 1.26515 428.952 -38.8613 1.26515 428.952
2030 1 -40.4798 1.22538 430.902 -40.4798 1.22538 430.902
2027 1 -42.0975 1.18513 432.853 -42.0975 1.18513 432.853
2325 1 -36.0587 1.13882 435.267 -36.0587 1.13882 435.267
1749 1 -35.7682 4.22699 428.457 -35.7682 4.22699 428.457
1425 1 -55.5148 4.33856 423.178 -55.5148 4.33856 423.178
1736 1 -43.4283 4.23575 427.994 -43.4283 4.23575 427.994
1142 1 -53.0889 2.18494 420.25 -53.0889 2.18494 420.25
1720 1 -52.7055 4.20506 429.489 -52.7055 4.20506 429.489
2005 1 -54.3223 4.16421 431.442 -54.3223 4.16421 431.442
2002 1 -55.9386 4.12328 433.395 -55.9386 4.12328 433.395
1169 1 -36.9532 4.39197 420.193 -36.9532 4.39197 420.193
1723 1 -51.0884 4.24571 427.537 -51.0884 4.24571 427.537
1440 1 -47.8531 4.32599 423.633 -47.8531 4.32599 423.633
1733 1 -45.0462 4.19559 429.945 -45.0462 4.19559 429.945
2018 1 -46.6635 4.15504 431.897 -46.6635 4.15504 431.897
2015 1 -48.2801 4.11419 433.849 -48.2801 4.11419 433.849
2036 1 -37.3874 4.18777 430.406 -37.3874 4.18777 430.406
2032 1 -39.0059 4.14799 432.357 -39.0059 4.14799 432.357
2326 1 -35.3943 1.82803 437.697 -35.3943 1.82803 437.697
1752 1 -34.1485 4.26563 426.508 -34.1485 4.26563 426.508
1457 1 -38.5722 4.35359 422.142 -38.5722 4.35359 422.142
2043 1 -32.8208 1.21774 431.367 -32.8208 1.21774 431.367
2286 1 -58.3624 1.84827 436.325 -58.3624 1.84827 436.325
2319 1 -39.2926 1.0577 439.169 -39.2926 1.0577 439.169
1436 1 -49.4709 4.28604 425.585 -49.4709 4.28604 425.585
1422 1 -57.132 4.29801 425.131 -57.132 4.29801 425.131
1173 1 -34.6682 0.691791 420.674 -34.6682 0.691791 420.674
2293 1 -54.6022 1.06956 438.254 -54.6022 1.06956 438.254
2289 1 -56.886 0.341733 437.778 -56.886 0.341733 437.778
2295 1 -53.126 3.99099 439.708 -53.126 3.99099 439.708
1465 1 -34.0031 1.38132 423.104 -34.0031 1.38132 423.104
2315 1 -41.5743 0.328068 438.69 -41.5743 0.328068 438.69
2331 1 -32.967 4.10167 434.772 -32.967 4.10167 434.772
2297 1 -52.3188 1.79777 438.731 -52.3188 1.79777 438.731
2324 1 -36.2029 4.0215 438.673 -36.2029 4.0215 438.673
2306 1 -46.9459 1.06233 438.71 -46.9459 1.06233 438.71
2285 1 -58.501 0.30111 439.731 -58.501 0.30111 439.731
1462 1 -35.6228 1.34313 425.052 -35.6228 1.34313 425.052
1751 1 -34.2943 2.72229 429.912 -34.2943 2.72229 429.912
2329 1 -33.7764 1.86813 435.747 -33.7764 1.86813 435.747
2042 1 -33.6306 3.41198 432.342 -33.6306 3.41198 432.342
2041 1 -34.4402 1.1786 433.317 -34.4402 1.1786 433.317
2593 1 -47.7532 3.25545 439.687 -47.7532 3.25545 439.687
2328 1 -33.9213 0.3237 439.152 -33.9213 0.3237 439.152
2301 1 -50.0358 2.52641 439.209 -50.0358 2.52641 439.209
1466 1 -33.1932 3.61394 422.129 -33.1932 3.61394 422.129
2298 1 -52.1793 3.34478 435.325 -52.1793 3.34478 435.325
2321 1 -38.4846 3.29186 438.193 -38.4846 3.29186 438.193
2313 1 -43.0484 1.83281 437.236 -43.0484 1.83281 437.236
2294 1 -53.7947 3.30376 437.278 -53.7947 3.30376 437.278
2304 1 -48.4209 2.56758 437.256 -48.4209 2.56758 437.256
2300 1 -50.7038 1.83886 436.778 -50.7038 1.83886 436.778
2290 1 -56.0784 2.57586 436.801 -56.0784 2.57586 436.801
2318 1 -39.9582 0.368977 436.738 -39.9582 0.368977 436.738
2327 1 -34.5855 4.06188 436.722 -34.5855 4.06188 436.722
2004 1 -54.4628 2.61679 434.848 -54.4628 2.61679 434.848
2013 1 -49.0881 1.87995 434.826 -49.0881 1.87995 434.826
2288 1 -57.5546 4.08239 435.348 -57.5546 4.08239 435.348
2037 1 -36.723 0.449568 432.836 -36.723 0.449568 432.836
1739 1 -41.81 4.27548 426.043 -41.81 4.27548 426.043
1753 1 -33.4844 0.527915 428.938 -33.4844 0.527915 428.938
2307 1 -46.8053 2.60869 435.303 -46.8053 2.60869 435.303
2314 1 -42.2404 4.06701 436.26 -42.2404 4.06701 436.26
2040 1 -35.1041 0.489047 430.887 -35.1041 0.489047 430.887
2320 1 -39.1498 2.60303 435.763 -39.1498 2.60303 435.763
2292 1 -55.2707 0.382585 435.825 -55.2707 0.382585 435.825
2311 1 -44.5227 3.33773 435.781 -44.5227 3.33773 435.781
2302 1 -49.896 4.07314 435.802 -49.896 4.07314 435.802
2296 1 -52.987 1.11054 436.301 -52.987 1.11054 436.301
1463 1 -35.478 2.88655 421.648 -35.478 2.88655 421.648
2287 1 -57.6936 2.53511 438.754 -57.6936 2.53511 438.754
2291 1 -55.4096 3.26286 439.231 -55.4096 3.26286 439.231
2317 1 -40.7664 2.56229 437.714 -40.7664 2.56229 437.714
2038 1 -35.9137 2.68311 431.861 -35.9137 2.68311 431.861
2305 1 -47.6132 0.374423 436.279 -47.6132 0.374423 436.279
2332 1 -32.3034 0.363854 437.202 -32.3034 0.363854 437.202
1709 1 -58.749 4.2572 427.084 -58.749 4.2572 427.084
1468 1 -32.3832 1.41898 421.155 -32.3832 1.41898 421.155
1454 1 -40.1912 4.31476 424.092 -40.1912 4.31476 424.092
1429 1 -53.8976 4.37874 421.226 -53.8976 4.37874 421.226
1133 1 -58.4662 2.9254 420.273 -58.4662 2.9254 420.273
1175 1 -33.8585 2.92435 419.699 -33.8585 2.92435 419.699
2616 1 -34.872 0.971801 443.535 -34.872 0.971801 443.535
2901 1 -36.4858 0.930548 445.488 -36.4858 0.930548 445.488
2907 1 -33.3988 3.89483 444.991 -33.3988 3.89483 444.991
3194 1 -34.3437 0.114497 449.377 -34.3437 0.114497 449.377
2587 1 -50.8429 0.29211 440.185 -50.8429 0.29211 440.185
2597 1 -45.4711 3.98482 440.165 -45.4711 3.98482 440.165
2584 1 -52.4567 0.251091 442.138 -52.4567 0.251091 442.138
2581 1 -54.0698 0.210338 444.092 -54.0698 0.210338 444.092
2868 1 -55.6824 0.169979 446.045 -55.6824 0.169979 446.045
2865 1 -57.2945 0.130144 447.997 -57.2945 0.130144 447.997
2601 1 -43.1893 0.286932 440.643 -43.1893 0.286932 440.643
2598 1 -44.8032 0.245724 442.596 -44.8032 0.245724 442.596
2885 1 -46.4161 0.204592 444.55 -46.4161 0.204592 444.55
2882 1 -48.028 0.163675 446.503 -48.028 0.163675 446.503
2879 1 -49.639 0.123102 448.457 -49.639 0.123102 448.457
2612 1 -37.1528 0.241916 443.056 -37.1528 0.241916 443.056
2898 1 -38.7663 0.200676 445.009 -38.7663 0.200676 445.009
2895 1 -40.3785 0.15947 446.963 -40.3785 0.15947 446.963
3180 1 -41.9895 0.11847 448.917 -41.9895 0.11847 448.917
2576 1 -57.024 3.2222 441.184 -57.024 3.2222 441.184
2574 1 -58.6379 3.18191 443.137 -58.6379 3.18191 443.137
2589 1 -49.3672 3.21427 441.64 -49.3672 3.21427 441.64
2586 1 -50.9803 3.17323 443.593 -50.9803 3.17323 443.593
2874 1 -52.5928 3.13246 445.546 -52.5928 3.13246 445.546
2871 1 -54.2046 3.09209 447.499 -54.2046 3.09209 447.499
3155 1 -55.8158 3.05225 449.452 -55.8158 3.05225 449.452
2607 1 -40.1003 3.25091 440.145 -40.1003 3.25091 440.145
2604 1 -41.7149 3.20975 442.098 -41.7149 3.20975 442.098
2600 1 -43.3283 3.16855 444.051 -43.3283 3.16855 444.051
2887 1 -44.9406 3.12747 446.005 -44.9406 3.12747 446.005
2884 1 -46.5518 3.08667 447.959 -46.5518 3.08667 447.959
3168 1 -48.1621 3.04628 449.913 -48.1621 3.04628 449.913
2900 1 -37.2921 3.12363 446.465 -37.2921 3.12363 446.465
2897 1 -38.9037 3.08244 448.419 -38.9037 3.08244 448.419
2582 1 -53.9331 1.7568 440.684 -53.9331 1.7568 440.684
2579 1 -55.5469 1.7161 442.638 -55.5469 1.7161 442.638
2866 1 -57.1602 1.67578 444.591 -57.1602 1.67578 444.591
2578 1 -56.2168 1.02877 440.207 -56.2168 1.02877 440.207
2595 1 -46.2781 1.75048 441.141 -46.2781 1.75048 441.141
2592 1 -47.8916 1.7093 443.094 -47.8916 1.7093 443.094
2880 1 -49.5041 1.6683 445.048 -49.5041 1.6683 445.048
2877 1 -51.1158 1.62758 447.001 -51.1158 1.62758 447.001
2873 1 -52.7268 1.58729 448.954 -52.7268 1.58729 448.954
2609 1 -38.6265 1.74639 441.601 -38.6265 1.74639 441.601
2606 1 -40.2406 1.70519 443.553 -40.2406 1.70519 443.553
2892 1 -41.8534 1.66399 445.507 -41.8534 1.66399 445.507
2890 1 -43.465 1.62296 447.461 -43.465 1.62296 447.461
3174 1 -45.0756 1.58224 449.415 -45.0756 1.58224 449.415
2618 1 -34.0646 3.20608 442.559 -34.0646 3.20608 442.559
2585 1 -51.6499 2.4853 441.162 -51.6499 2.4853 441.162
2583 1 -53.2633 2.4444 443.115 -53.2633 2.4444 443.115
2870 1 -54.8762 2.40383 445.068 -54.8762 2.40383 445.068
2867 1 -56.4885 2.36371 447.021 -56.4885 2.36371 447.021
2863 1 -58.1004 2.32419 448.974 -58.1004 2.32419 448.974
2599 1 -43.9964 2.48005 441.62 -43.9964 2.48005 441.62
2596 1 -45.6097 2.43887 443.573 -45.6097 2.43887 443.573
2883 1 -47.2221 2.39783 445.526 -47.2221 2.39783 445.526
2881 1 -48.8336 2.35706 447.48 -48.8336 2.35706 447.48
3164 1 -50.4442 2.31671 449.434 -50.4442 2.31671 449.434
2610 1 -37.9597 2.43503 444.032 -37.9597 2.43503 444.032
2896 1 -39.5726 2.39378 445.986 -39.5726 2.39378 445.986
2893 1 -41.1842 2.35266 447.94 -41.1842 2.35266 447.94
3178 1 -42.7945 2.31182 449.894 -42.7945 2.31182 449.894
2575 1 -57.831 0.988277 442.161 -57.831 0.988277 442.161
2591 1 -48.5603 1.02112 440.663 -48.5603 1.02112 440.663
2588 1 -50.1739 0.979993 442.616 -50.1739 0.979993 442.616
2876 1 -51.7866 0.939073 444.569 -51.7866 0.939073 444.569
2872 1 -53.3987 0.898489 446.523 -53.3987 0.898489 446.523
2869 1 -55.0102 0.858368 448.476 -55.0102 0.858368 448.476
2605 1 -40.9078 1.01662 441.122 -40.9078 1.01662 441.122
2602 1 -42.5217 0.975419 443.075 -42.5217 0.975419 443.075
2889 1 -44.1346 0.934262 445.028 -44.1346 0.934262 445.028
2886 1 -45.7463 0.893303 446.982 -45.7463 0.893303 446.982
3170 1 -47.3571 0.852686 448.936 -47.3571 0.852686 448.936
2899 1 -38.0981 0.889283 447.442 -38.0981 0.889283 447.442
3184 1 -39.7089 0.848202 449.396 -39.7089 0.848202 449.396
2580 1 -54.7401 3.95014 441.661 -54.7401 3.95014 441.661
2577 1 -56.3536 3.90961 443.614 -56.3536 3.90961 443.614
2864 1 -57.9667 3.86952 445.567 -57.9667 3.86952 445.567
2862 1 -58.7731 1.63596 446.544 -58.7731 1.63596 446.544
2594 1 -47.085 3.9436 442.118 -47.085 3.9436 442.118
2590 1 -48.6979 3.9025 444.071 -48.6979 3.9025 444.071
2878 1 -50.3101 3.86162 446.024 -50.3101 3.86162 446.024
2875 1 -51.9214 3.8211 447.978 -51.9214 3.8211 447.978
3159 1 -53.5321 3.78106 449.931 -53.5321 3.78106 449.931
2611 1 -37.8189 3.98065 440.624 -37.8189 3.98065 440.624
2608 1 -39.4337 3.93953 442.577 -39.4337 3.93953 442.577
2894 1 -41.0472 3.89831 444.53 -41.0472 3.89831 444.53
2891 1 -42.6594 3.85717 446.484 -42.6594 3.85717 446.484
2888 1 -44.2704 3.81627 448.438 -44.2704 3.81627 448.438
2904 1 -35.012 3.85349 446.944 -35.012 3.85349 446.944
2621 1 -32.4484 3.24688 440.608 -32.4484 3.24688 440.608
2617 1 -34.7297 2.51713 440.128 -34.7297 2.51713 440.128
2614 1 -36.3454 2.47621 442.08 -36.3454 2.47621 442.08
2908 1 -32.7321 0.155915 447.423 -32.7321 0.155915 447.423
2619 1 -33.2567 1.01281 441.583 -33.2567 1.01281 441.583
2906 1 -33.5381 2.34891 448.4 -33.5381 2.34891 448.4
2905 1 -34.2056 1.66044 445.967 -34.2056 1.66044 445.967
2620 1 -32.5915 1.70171 444.014 -32.5915 1.70171 444.014
3190 1 -36.6235 3.81221 448.898 -36.6235 3.81221 448.898
2902 1 -35.8179 1.6191 447.921 -35.8179 1.6191 447.921
2903 1 -35.6791 3.16492 444.511 -35.6791 3.16492 444.511
2615 1 -35.5377 0.282993 441.104 -35.5377 0.282993 441.104
2909 1 -31.9256 2.39037 446.446 -31.9256 2.39037 446.446
14 1 -51.5342 0.415644 398.955 -51.5342 4.8431 398.955
7 1 -55.9643 3.36935 398.131 -55.9643 3.36935 398.131
25 1 -43.8135 0.415479 399.336 -43.8135 4.84293 399.336
38 1 -36.0817 0.337983 399.737 -36.0817 4.76544 399.737
23 1 -45.4196 0.359495 401.275 -45.4196 4.78695 401.275
287 1 -48.6365 0.274762 405.157 -48.6365 4.70221 405.157
878 1 -39.7627 0.0926424 413.877 -39.7627 4.5201 413.877
579 1 -45.8118 0.146663 411.467 -45.8118 4.57412 411.467
585 1 -42.5796 0.2221 407.563 -42.5796 4.64955 407.563
290 1 -47.0291 0.316246 403.212 -47.0291 4.7437 403.212
11 1 -53.0848 0.352967 400.85 -53.0848 4.78042 400.85
595 1 -36.5274 0.167546 409.978 -36.5274 4.595 409.978
1134 1 -58.3253 0.0453479 416.867 -58.3253 4.4728 416.867
283 1 -50.2475 0.236065 407.107 -50.2475 4.66352 407.107
582 1 -44.1956 0.184656 409.515 -44.1956 4.61211 409.515
276 1 -54.6996 0.332062 402.758 -54.6996 4.75951 402.758
569 1 -51.8606 0.198482 409.058 -51.8606 4.62593 409.058
847 1 -56.7085 0.0843714 414.915 -56.7085 4.51182 414.915
272 1 -56.2988 0.296309 404.704 -56.2988 4.72376 404.704
3 1 -57.7552 3.3721 399.865 -57.7552 3.3721 399.865
35 1 -37.7185 0.322743 401.698 -37.7185 4.7502 401.698
598 1 -34.9091 0.203903 408.029 -34.9091 4.63136 408.029
850 1 -55.0917 0.122559 412.963 -55.0917 4.55001 412.963
304 1 -39.3448 0.295043 403.657 -39.3448 4.7225 403.657
301 1 -40.9633 0.259022 405.611 -40.9633 4.68647 405.611