ITEM: TIMESTEP
0
ITEM: NUMBER OF ATOMS
4630
ITEM: BOX BOUNDS xy xz yz pp pp pp
-6.2840988501799998e+01 1.0586002035000000e+02 0.0000000000000000e+00
0.0000000000000000e+00 4.4274527100805940e+00 0.0000000000000000e+00
3.8000000000000000e+02 5.0000000000000000e+02 0.0000000000000000e+00
ITEM: ATOMS id type x y z xu yu zu
27 1 -45.2461 2.22101 399.38 -45.2461 2.22101 399.38
36 1 -39.6708 1.47863 399.437 -39.6708 1.47863 399.437
31 1 -42.8601 2.91249 399.819 -42.8601 2.91249 399.819
22 1 -48.4248 3.66399 399.79 -48.4248 3.66399 399.79
20 1 -49.2889 1.44312 400.642 -49.2889 1.44312 400.642
40 1 -37.2873 2.1717 399.879 -37.2873 2.1717 399.879
34 1 -40.5129 3.67727 400.278 -40.5129 3.67727 400.278
17 1 -51.6403 0.690824 400.19 -51.6403 0.690824 400.19
9 1 -57.177 1.37887 400.104 -57.177 1.37887 400.104
43 1 -34.9414 2.93725 400.339 -34.9414 2.93725 400.339
12 1 -54.859 2.19576 400.592 -54.859 2.19576 400.592
5 1 -59.5545 0.71399 399.643 -59.5545 0.71399 399.643
29 1 -43.7163 0.683938 400.678 -43.7163 0.683938 400.678
853 1 -56.5992 2.79359 414.833 -56.5992 2.79359 414.833
873 1 -45.4647 1.31718 414.955 -45.4647 1.31718 414.955
865 1 -49.5364 0.567628 416.339 -49.5364 0.567628 416.339
1174 1 -36.9041 2.02784 417.905 -36.9041 2.02784 417.905
883 1 -39.8963 0.577699 415.016 -39.8963 0.577699 415.016
863 1 -51.0332 2.05632 414.894 -51.0332 2.05632 414.894
315 1 -35.163 1.41312 403.644 -35.163 1.41312 403.644
307 1 -40.0935 2.87093 405.97 -40.0935 2.87093 405.97
1150 1 -51.2522 0.550581 418.225 -51.2522 0.550581 418.225
855 1 -55.1028 1.30519 416.278 -55.1028 1.30519 416.278
310 1 -38.3761 2.8879 404.089 -38.3761 2.8879 404.089
871 1 -46.3232 3.52279 415.898 -46.3232 3.52279 415.898
16 1 -52.4932 2.8896 401.052 -52.4932 2.8896 401.052
309 1 -38.596 1.38212 407.413 -38.596 1.38212 407.413
1156 1 -48.0398 3.5063 417.783 -48.0398 3.5063 417.783
867 1 -48.6783 2.78968 415.396 -48.6783 2.78968 415.396
1159 1 -45.685 4.23952 418.285 -45.685 4.23952 418.285
1168 1 -40.1172 3.50027 418.346 -40.1172 3.50027 418.346
1170 1 -39.2587 1.29465 417.403 -39.2587 1.29465 417.403
594 1 -39.4546 3.58779 408.356 -39.4546 3.58779 408.356
37 1 -39.0129 2.16944 401.724 -39.0129 2.16944 401.724
851 1 -57.4566 0.571133 415.777 -57.4566 0.571133 415.777
857 1 -54.2453 3.52764 415.335 -54.2453 3.52764 415.335
592 1 -40.3131 1.36595 409.299 -40.3131 1.36595 409.299
849 1 -58.3142 2.77615 416.72 -58.3142 2.77615 416.72
877 1 -43.1097 2.05022 415.457 -43.1097 2.05022 415.457
1143 1 -55.9603 3.51018 417.222 -55.9603 3.51018 417.222
1140 1 -57.6755 3.49274 419.108 -57.6755 3.49274 419.108
845 1 -60.668 2.04225 416.219 -60.668 2.04225 416.219
875 1 -43.9683 4.25585 416.399 -43.9683 4.25585 416.399
886 1 -38.1792 0.593929 413.131 -38.1792 0.593929 413.131
891 1 -34.9658 3.54885 412.69 -34.9658 3.54885 412.69
39 1 -37.5218 0.676596 403.136 -37.5218 0.676596 403.136
1177 1 -35.4081 0.539243 419.35 -35.4081 0.539243 419.35
1167 1 -40.9757 1.27841 419.289 -40.9757 1.27841 419.289
8 1 -58.0495 3.63611 401.067 -58.0495 3.63611 401.067
869 1 -47.1816 1.30088 416.84 -47.1816 1.30088 416.84
1136 1 -60.0293 2.75878 418.607 -60.0293 2.75878 418.607
1162 1 -44.1886 2.75075 419.73 -44.1886 2.75075 419.73
15 1 -53.3571 0.685879 402.04 -53.3571 0.685879 402.04
280 1 -55.0765 0.668746 403.907 -55.0765 0.668746 403.907
277 1 -56.8029 0.663754 405.782 -56.8029 0.663754 405.782
273 1 -58.5178 0.646436 407.666 -58.5178 0.646436 407.666
560 1 -60.2309 0.627302 409.555 -60.2309 0.627302 409.555
557 1 -61.9454 0.609381 411.443 -61.9454 0.609381 411.443
26 1 -45.4377 0.68892 402.572 -45.4377 0.68892 402.572
294 1 -47.1583 0.674752 404.467 -47.1583 0.674752 404.467
291 1 -48.8754 0.654481 406.351 -48.8754 0.654481 406.351
576 1 -50.5924 0.636903 408.235 -50.5924 0.636903 408.235
573 1 -52.3104 0.621812 410.118 -52.3104 0.621812 410.118
570 1 -54.0267 0.605802 412.003 -54.0267 0.605802 412.003
854 1 -55.7417 0.588584 413.89 -55.7417 0.588584 413.89
305 1 -40.951 0.649397 406.912 -40.951 0.649397 406.912
589 1 -42.6682 0.632994 408.798 -42.6682 0.632994 408.798
586 1 -44.3853 0.616544 410.683 -44.3853 0.616544 410.683
872 1 -46.1027 0.600289 412.568 -46.1027 0.600289 412.568
599 1 -36.4619 0.610169 411.245 -36.4619 0.610169 411.245
1132 1 -62.3832 2.02495 418.106 -62.3832 2.02495 418.106
4 1 -59.8078 3.65492 402.877 -59.8078 3.65492 402.877
268 1 -61.5094 3.62324 404.772 -61.5094 3.62324 404.772
1152 1 -50.3944 2.77288 417.281 -50.3944 2.77288 417.281
19 1 -50.1579 3.63239 401.579 -50.1579 3.63239 401.579
286 1 -51.8657 3.61832 403.449 -51.8657 3.61832 403.449
282 1 -53.5813 3.60809 405.342 -53.5813 3.60809 405.342
279 1 -55.3037 3.59862 407.225 -55.3037 3.59862 407.225
565 1 -57.0202 3.58364 409.111 -57.0202 3.58364 409.111
563 1 -58.7344 3.56585 410.999 -58.7344 3.56585 410.999
846 1 -60.4491 3.5482 412.887 -60.4491 3.5482 412.887
32 1 -42.2261 3.64017 402.155 -42.2261 3.64017 402.155
300 1 -43.9455 3.62794 404.03 -43.9455 3.62794 404.03
297 1 -45.6628 3.6113 405.911 -45.6628 3.6113 405.911
293 1 -47.3789 3.59421 407.796 -47.3789 3.59421 407.796
578 1 -49.096 3.57727 409.68 -49.096 3.57727 409.68
575 1 -50.8136 3.56131 411.564 -50.8136 3.56131 411.564
860 1 -52.53 3.54487 413.449 -52.53 3.54487 413.449
591 1 -41.1718 3.57145 410.242 -41.1718 3.57145 410.242
588 1 -42.8889 3.55516 412.127 -42.8889 3.55516 412.127
874 1 -44.6061 3.53897 414.012 -44.6061 3.53897 414.012
10 1 -56.5691 2.14536 402.47 -56.5691 2.14536 402.47
274 1 -58.3051 2.15706 404.331 -58.3051 2.15706 404.331
271 1 -60.0148 2.13594 406.22 -60.0148 2.13594 406.22
558 1 -61.7268 2.11563 408.11 -61.7268 2.11563 408.11
24 1 -46.9546 2.17425 401.165 -46.9546 2.17425 401.165
21 1 -48.6625 2.16064 403.021 -48.6625 2.16064 403.021
288 1 -50.371 2.14076 404.908 -50.371 2.14076 404.908
285 1 -52.0877 2.12331 406.792 -52.0877 2.12331 406.792
571 1 -53.8072 2.10988 408.673 -53.8072 2.10988 408.673
568 1 -55.5235 2.09444 410.558 -55.5235 2.09444 410.558
852 1 -57.2381 2.0771 412.445 -57.2381 2.0771 412.445
848 1 -58.9529 2.05961 414.332 -58.9529 2.05961 414.332
306 1 -40.733 2.15314 403.583 -40.733 2.15314 403.583
302 1 -42.4486 2.13764 405.466 -42.4486 2.13764 405.466
299 1 -44.165 2.12188 407.353 -44.165 2.12188 407.353
583 1 -45.8819 2.1054 409.239 -45.8819 2.1054 409.239
581 1 -47.5993 2.08893 411.124 -47.5993 2.08893 411.124
866 1 -49.3167 2.07283 413.009 -49.3167 2.07283 413.009
880 1 -41.3925 2.06642 413.572 -41.3925 2.06642 413.572
312 1 -36.8794 1.39791 405.526 -36.8794 1.39791 405.526
2 1 -61.318 0.726514 401.441 -61.318 0.726514 401.441
13 1 -54.2094 2.88783 402.95 -54.2094 2.88783 402.95
278 1 -55.9386 2.87992 404.839 -55.9386 2.87992 404.839
275 1 -57.6607 2.86957 406.721 -57.6607 2.86957 406.721
562 1 -59.3738 2.8504 408.61 -59.3738 2.8504 408.61
559 1 -61.0879 2.83194 410.499 -61.0879 2.83194 410.499
1166 1 -41.834 3.48398 420.231 -41.834 3.48398 420.231
889 1 -35.8244 1.32705 413.633 -35.8244 1.32705 413.633
28 1 -44.5831 2.91016 401.666 -44.5831 2.91016 401.666
296 1 -46.3033 2.89486 403.525 -46.3033 2.89486 403.525
292 1 -48.0179 2.87836 405.408 -48.0179 2.87836 405.408
289 1 -49.7334 2.85943 407.294 -49.7334 2.85943 407.294
574 1 -51.4514 2.84322 409.177 -51.4514 2.84322 409.177
572 1 -53.1688 2.82781 411.061 -53.1688 2.82781 411.061
856 1 -54.8843 2.81102 412.946 -54.8843 2.81102 412.946
303 1 -41.8101 2.85464 407.855 -41.8101 2.85464 407.855
587 1 -43.5269 2.83841 409.74 -43.5269 2.83841 409.74
584 1 -45.244 2.82209 411.626 -45.244 2.82209 411.626
870 1 -46.9613 2.80595 413.511 -46.9613 2.80595 413.511
6 1 -58.9382 1.44202 401.945 -58.9382 1.44202 401.945
270 1 -60.6569 1.4239 403.821 -60.6569 1.4239 403.821
267 1 -62.3644 1.39901 405.719 -62.3644 1.39901 405.719
890 1 -35.1869 2.04401 416.02 -35.1869 2.04401 416.02
18 1 -51.0034 1.41375 402.525 -51.0034 1.41375 402.525
284 1 -52.7207 1.40195 404.407 -52.7207 1.40195 404.407
281 1 -54.4434 1.39035 406.287 -54.4434 1.39035 406.287
567 1 -56.1629 1.37837 408.169 -56.1629 1.37837 408.169
564 1 -57.8774 1.3611 410.056 -57.8774 1.3611 410.056
561 1 -59.5917 1.34326 411.943 -59.5917 1.34326 411.943
844 1 -61.3067 1.32577 413.831 -61.3067 1.32577 413.831
33 1 -41.3854 1.43324 401.217 -41.3854 1.43324 401.217
30 1 -43.0918 1.41657 403.076 -43.0918 1.41657 403.076
298 1 -44.8043 1.40549 404.965 -44.8043 1.40549 404.965
295 1 -46.5205 1.38924 406.853 -46.5205 1.38924 406.853
580 1 -48.2373 1.37173 408.738 -48.2373 1.37173 408.738
577 1 -49.9549 1.35543 410.622 -49.9549 1.35543 410.622
862 1 -51.672 1.33945 412.506 -51.672 1.33945 412.506
590 1 -42.0303 1.34962 411.184 -42.0303 1.34962 411.184
876 1 -43.7475 1.33334 413.07 -43.7475 1.33334 413.07
1163 1 -43.3303 0.545233 418.787 -43.3303 0.545233 418.787
1153 1 -49.7557 3.48935 419.669 -49.7557 3.48935 419.669
311 1 -37.7369 3.60438 406.471 -37.7369 3.60438 406.471
42 1 -35.8141 0.692997 401.278 -35.8141 0.692997 401.278
1135 1 -60.8869 0.53638 419.551 -60.8869 0.53638 419.551
1171 1 -38.6211 2.01163 419.791 -38.6211 2.01163 419.791
1139 1 -58.533 1.2703 420.052 -58.533 1.2703 420.052
601 1 -35.6034 2.83196 410.303 -35.6034 2.83196 410.303
313 1 -36.0174 3.62127 404.585 -36.0174 3.62127 404.585
858 1 -53.3877 1.32258 414.392 -53.3877 1.32258 414.392
868 1 -47.8199 0.584148 414.453 -47.8199 0.584148 414.453
1147 1 -53.6064 4.2442 417.723 -53.6064 4.2442 417.723
843 1 -62.1643 3.53084 414.775 -62.1643 3.53084 414.775
593 1 -39.6754 2.08268 411.686 -39.6754 2.08268 411.686
308 1 -39.2344 0.665299 405.024 -39.2344 0.665299 405.024
861 1 -51.891 4.26153 415.837 -51.891 4.26153 415.837
1158 1 -46.5432 2.0175 419.228 -46.5432 2.0175 419.228
884 1 -39.0377 2.79954 414.073 -39.0377 2.79954 414.073
881 1 -40.7549 2.78332 415.959 -40.7549 2.78332 415.959
885 1 -38.4001 3.51648 416.461 -38.4001 3.51648 416.461
859 1 -52.7487 2.03917 416.78 -52.7487 2.03917 416.78
596 1 -37.9583 2.0989 409.801 -37.9583 2.0989 409.801
879 1 -41.6134 0.561496 416.901 -41.6134 0.561496 416.901
1172 1 -37.7626 4.23347 418.848 -37.7626 4.23347 418.848
1154 1 -48.8978 1.28415 418.726 -48.8978 1.28415 418.726
887 1 -37.5416 1.31085 415.518 -37.5416 1.31085 415.518
597 1 -37.3206 2.81576 412.188 -37.3206 2.81576 412.188
1161 1 -44.8267 2.034 417.342 -44.8267 2.034 417.342
1138 1 -59.1717 0.553734 417.664 -59.1717 0.553734 417.664
1149 1 -52.1099 2.75566 419.168 -52.1099 2.75566 419.168
41 1 -36.6558 2.89984 402.215 -36.6558 2.89984 402.215
888 1 -36.683 3.53267 414.575 -36.683 3.53267 414.575
1165 1 -42.4719 2.76711 417.844 -42.4719 2.76711 417.844
1141 1 -56.8179 1.28773 418.165 -56.8179 1.28773 418.165
1145 1 -54.464 2.02175 418.666 -54.464 2.02175 418.666
600 1 -36.2413 2.11502 407.915 -36.2413 2.11502 407.915
1148 1 -52.9676 0.533244 420.111 -52.9676 0.533244 420.111
882 1 -40.534 4.28826 412.629 -40.534 4.28826 412.629
1157 1 -47.4013 4.22284 420.171 -47.4013 4.22284 420.171
1144 1 -55.3216 4.22675 419.61 -55.3216 4.22675 419.61
602 1 -34.7446 0.62637 409.36 -34.7446 0.62637 409.36
1131 1 -62.602 0.51904 421.438 -62.602 0.51904 421.438
1755 1 -35.2123 2.67413 428.398 -35.2123 2.67413 428.398
1460 1 -39.7 2.71221 424.064 -39.7 2.71221 424.064
2308 1 -49.3535 3.32647 437.771 -49.3535 3.32647 437.771
2316 1 -44.4281 1.87266 435.442 -44.4281 1.87266 435.442
2312 1 -47.0001 4.06044 438.272 -47.0001 4.06044 438.272
1464 1 -37.3458 3.4456 424.566 -37.3458 3.4456 424.566
1461 1 -38.8418 0.506708 423.121 -38.8418 0.506708 423.121
2039 1 -38.0061 3.35751 434.558 -38.0061 3.35751 434.558
2613 1 -39.9402 1.83483 439.776 -39.9402 1.83483 439.776
1467 1 -34.9916 4.17901 425.068 -34.9916 4.17901 425.068
2603 1 -45.504 2.57201 439.717 -45.504 2.57201 439.717
1443 1 -49.117 4.20582 422.057 -49.117 4.20582 422.057
1748 1 -39.0622 3.42909 426.451 -39.0622 3.42909 426.451
2023 1 -46.7816 1.13875 434.94 -46.7816 1.13875 434.94
2310 1 -47.8573 1.83804 439.216 -47.8573 1.83804 439.216
1151 1 -50.6134 1.26704 420.612 -50.6134 1.26704 420.612
2303 1 -52.5642 0.370038 438.213 -52.5642 0.370038 438.213
2299 1 -54.9178 4.06345 437.712 -54.9178 4.06345 437.712
2033 1 -41.2171 0.401406 435 -41.2171 0.401406 435
1433 1 -54.6828 0.515812 421.998 -54.6828 0.515812 421.998
1430 1 -56.3979 0.498353 423.885 -56.3979 0.498353 423.885
1426 1 -58.1129 0.480883 425.772 -58.1129 0.480883 425.772
1713 1 -59.8279 0.463404 427.659 -59.8279 0.463404 427.659
1710 1 -61.5427 0.445922 429.546 -61.5427 0.445922 429.546
2330 1 -35.8722 2.58596 438.391 -35.8722 2.58596 438.391
1160 1 -45.0468 0.528739 420.672 -45.0468 0.528739 420.672
1447 1 -46.7628 0.511929 422.558 -46.7628 0.511929 422.558
1444 1 -48.4784 0.494854 424.445 -48.4784 0.494854 424.445
1730 1 -50.1938 0.477604 426.331 -50.1938 0.477604 426.331
1727 1 -51.9089 0.460247 428.218 -51.9089 0.460247 428.218
1724 1 -53.6239 0.442822 430.105 -53.6239 0.442822 430.105
2008 1 -55.3387 0.425355 431.992 -55.3387 0.425355 431.992
2006 1 -57.0534 0.407867 433.879 -57.0534 0.407867 433.879
1458 1 -40.5582 0.490196 425.007 -40.5582 0.490196 425.007
1743 1 -42.2742 0.473461 426.893 -42.2742 0.473461 426.893
1740 1 -43.9899 0.456513 428.779 -43.9899 0.456513 428.779
2026 1 -45.7052 0.439394 430.665 -45.7052 0.439394 430.665
2022 1 -47.4203 0.422151 432.552 -47.4203 0.422151 432.552
2019 1 -49.1351 0.404824 434.439 -49.1351 0.404824 434.439
2309 1 -48.4963 1.12142 436.827 -48.4963 1.12142 436.827
1137 1 -59.3906 3.47532 420.996 -59.3906 3.47532 420.996
1421 1 -61.1056 3.45792 422.883 -61.1056 3.45792 422.883
1439 1 -51.4712 3.47212 421.556 -51.4712 3.47212 421.556
1435 1 -53.1864 3.45474 423.442 -53.1864 3.45474 423.442
1432 1 -54.9016 3.4373 425.329 -54.9016 3.4373 425.329
1719 1 -56.6166 3.41983 427.216 -56.6166 3.41983 427.216
1716 1 -58.3315 3.40234 429.103 -58.3315 3.40234 429.103
2001 1 -60.0463 3.38484 430.99 -60.0463 3.38484 430.99
1998 1 -61.7609 3.36735 432.878 -61.7609 3.36735 432.878
2323 1 -39.7212 3.34043 436.445 -39.7212 3.34043 436.445
1453 1 -43.5505 3.46747 422.117 -43.5505 3.46747 422.117
1450 1 -45.2665 3.4507 424.003 -45.2665 3.4507 424.003
1446 1 -46.9822 3.43368 425.889 -46.9822 3.43368 425.889
1732 1 -48.6975 3.41648 427.776 -48.6975 3.41648 427.776
1729 1 -50.4127 3.39917 429.663 -50.4127 3.39917 429.663
2014 1 -52.1276 3.38178 431.55 -52.1276 3.38178 431.55
2011 1 -53.8424 3.36434 433.437 -53.8424 3.36434 433.437
1745 1 -40.7782 3.41236 428.337 -40.7782 3.41236 428.337
1742 1 -42.4938 3.39543 430.224 -42.4938 3.39543 430.224
2028 1 -44.2091 3.37834 432.11 -44.2091 3.37834 432.11
2025 1 -45.9242 3.36112 433.997 -45.9242 3.36112 433.997
1427 1 -57.8942 1.98684 422.44 -57.8942 1.98684 422.44
1424 1 -59.6093 1.96939 424.327 -59.6093 1.96939 424.327
1711 1 -61.3243 1.95194 426.214 -61.3243 1.95194 426.214
2322 1 -40.5787 1.11812 437.388 -40.5787 1.11812 437.388
1750 1 -37.5662 1.94058 427.896 -37.5662 1.94058 427.896
1155 1 -48.2592 2.00064 421.114 -48.2592 2.00064 421.114
1441 1 -49.9748 1.98349 423 -49.9748 1.98349 423
1438 1 -51.6901 1.96618 424.887 -51.6901 1.96618 424.887
1725 1 -53.4052 1.94878 426.774 -53.4052 1.94878 426.774
1722 1 -55.1202 1.93133 428.661 -55.1202 1.93133 428.661
1718 1 -56.8351 1.91384 430.548 -56.8351 1.91384 430.548
2003 1 -58.5498 1.89634 432.435 -58.5498 1.89634 432.435
2000 1 -60.2644 1.87884 434.322 -60.2644 1.87884 434.322
1459 1 -40.3379 1.99532 421.676 -40.3379 1.99532 421.676
1455 1 -42.0543 1.97881 423.562 -42.0543 1.97881 423.562
1452 1 -43.7703 1.96206 425.448 -43.7703 1.96206 425.448
1737 1 -45.486 1.94508 427.334 -45.486 1.94508 427.334
1735 1 -47.2013 1.92793 429.221 -47.2013 1.92793 429.221
2020 1 -48.9164 1.91065 431.107 -48.9164 1.91065 431.107
2017 1 -50.6313 1.89329 432.994 -50.6313 1.89329 432.994
2034 1 -40.9978 1.90694 431.668 -40.9978 1.90694 431.668
2031 1 -42.7131 1.88986 433.555 -42.7131 1.88986 433.555
2029 1 -43.5706 4.095 434.498 -43.5706 4.095 434.498
1146 1 -53.8252 2.73826 421.054 -53.8252 2.73826 421.054
1431 1 -55.5404 2.72081 422.941 -55.5404 2.72081 422.941
1428 1 -57.2554 2.70335 424.828 -57.2554 2.70335 424.828
1715 1 -58.9704 2.68587 426.715 -58.9704 2.68587 426.715
1712 1 -60.6853 2.66839 428.602 -60.6853 2.66839 428.602
1708 1 -62.4001 2.65091 430.49 -62.4001 2.65091 430.49
1747 1 -39.2822 1.92386 429.782 -39.2822 1.92386 429.782
1449 1 -45.9049 2.7341 421.615 -45.9049 2.7341 421.615
1445 1 -47.6207 2.71715 423.502 -47.6207 2.71715 423.502
1442 1 -49.3361 2.69997 425.388 -49.3361 2.69997 425.388
1728 1 -51.0514 2.68266 427.275 -51.0514 2.68266 427.275
1726 1 -52.7664 2.66527 429.162 -52.7664 2.66527 429.162
2010 1 -54.4813 2.64782 431.049 -54.4813 2.64782 431.049
2007 1 -56.1961 2.63034 432.936 -56.1961 2.63034 432.936
1456 1 -41.4162 2.69558 425.949 -41.4162 2.69558 425.949
1741 1 -43.1321 2.67874 427.836 -43.1321 2.67874 427.836
1738 1 -44.8476 2.6617 429.722 -44.8476 2.6617 429.722
2024 1 -46.5628 2.64451 431.609 -46.5628 2.64451 431.609
2021 1 -48.2777 2.62722 433.496 -48.2777 2.62722 433.496
2035 1 -40.3596 2.62369 434.056 -40.3596 2.62369 434.056
1754 1 -35.8499 1.9571 426.011 -35.8499 1.9571 426.011
1423 1 -60.2481 1.25289 421.939 -60.2481 1.25289 421.939
1420 1 -61.9632 1.23549 423.826 -61.9632 1.23549 423.826
2044 1 -34.7948 1.88606 434.117 -34.7948 1.88606 434.117
1437 1 -52.3288 1.24971 422.499 -52.3288 1.24971 422.499
1434 1 -54.044 1.2323 424.386 -54.044 1.2323 424.386
1721 1 -55.7591 1.21484 426.273 -55.7591 1.21484 426.273
1717 1 -57.474 1.19736 428.16 -57.474 1.19736 428.16
1714 1 -59.1889 1.17987 430.047 -59.1889 1.17987 430.047
1999 1 -60.9036 1.16237 431.934 -60.9036 1.16237 431.934
1997 1 -62.6183 1.14488 433.821 -62.6183 1.14488 433.821
1164 1 -42.6923 1.26203 421.174 -42.6923 1.26203 421.174
1451 1 -44.4086 1.24539 423.06 -44.4086 1.24539 423.06
1448 1 -46.1244 1.22849 424.946 -46.1244 1.22849 424.946
1734 1 -47.8399 1.21137 426.833 -47.8399 1.21137 426.833
1731 1 -49.5551 1.19411 428.719 -49.5551 1.19411 428.719
2016 1 -51.2702 1.17676 430.606 -51.2702 1.17676 430.606
2012 1 -52.985 1.15934 432.493 -52.985 1.15934 432.493
2009 1 -54.6997 1.14188 434.38 -54.6997 1.14188 434.38
1746 1 -39.9202 1.20703 427.394 -39.9202 1.20703 427.394
1744 1 -41.636 1.19019 429.28 -41.636 1.19019 429.28
2030 1 -43.3515 1.17318 431.167 -43.3515 1.17318 431.167
2027 1 -45.0667 1.15602 433.053 -45.0667 1.15602 433.053
2325 1 -38.8637 1.13526 435.501 -38.8637 1.13526 435.501
1749 1 -38.4243 4.14597 428.839 -38.4243 4.14597 428.839
1425 1 -58.7518 4.19184 423.384 -58.7518 4.19184 423.384
1736 1 -46.3437 4.15025 428.277 -46.3437 4.15025 428.277
1142 1 -56.1791 2.00429 420.553 -56.1791 2.00429 420.553
1720 1 -55.9777 4.13631 429.604 -55.9777 4.13631 429.604
2005 1 -57.6925 4.11882 431.491 -57.6925 4.11882 431.491
2002 1 -59.4071 4.10132 433.378 -59.4071 4.10132 433.378
1169 1 -39.4795 4.21722 420.733 -39.4795 4.21722 420.733
1723 1 -54.2628 4.15378 427.717 -54.2628 4.15378 427.717
1440 1 -50.8325 4.18858 423.944 -50.8325 4.18858 423.944
1733 1 -48.0589 4.13303 430.164 -48.0589 4.13303 430.164
2018 1 -49.7739 4.11571 432.051 -49.7739 4.11571 432.051
2015 1 -51.4887 4.09832 433.938 -51.4887 4.09832 433.938
2036 1 -40.1401 4.12915 430.725 -40.1401 4.12915 430.725
2032 1 -41.8555 4.11214 432.612 -41.8555 4.11214 432.612
2326 1 -38.2254 1.85204 437.89 -38.2254 1.85204 437.89
1752 1 -36.7081 4.16259 426.953 -36.7081 4.16259 426.953
1457 1 -41.1961 4.20082 422.619 -41.1961 4.20082 422.619
2043 1 -35.4326 1.16909 431.729 -35.4326 1.16909 431.729
2286 1 -61.979 1.86136 436.209 -61.979 1.86136 436.209
2319 1 -42.2934 1.10089 439.275 -42.2934 1.10089 439.275
1436 1 -52.5477 4.17121 425.83 -52.5477 4.17121 425.83
1422 1 -60.4668 4.17439 425.271 -60.4668 4.17439 425.271
1173 1 -37.125 0.523033 421.235 -37.125 0.523033 421.235
2293 1 -58.1286 1.10694 438.155 -58.1286 1.10694 438.155
2289 1 -60.4824 0.372899 437.654 -60.4824 0.372899 437.654
2295 1 -56.6321 4.04601 439.599 -56.6321 4.04601 439.599
1465 1 -36.4875 1.24006 423.623 -36.4875 1.24006 423.623
2315 1 -44.6467 0.366941 438.773 -44.6467 0.366941 438.773
2331 1 -35.6526 4.09134 435.06 -35.6526 4.09134 435.06
2297 1 -55.775 1.841 438.656 -55.775 1.841 438.656
2324 1 -39.0828 4.05717 438.833 -39.0828 4.05717 438.833
2306 1 -50.2107 1.10406 438.714 -50.2107 1.10406 438.714
2285 1 -62.1967 0.355454 439.541 -62.1967 0.355454 439.541
1462 1 -38.204 1.22364 425.508 -38.204 1.22364 425.508
1751 1 -36.9284 2.65751 430.284 -36.9284 2.65751 430.284
2329 1 -36.5103 1.86912 436.003 -36.5103 1.86912 436.003
2042 1 -36.2905 3.37443 432.672 -36.2905 3.37443 432.672
2041 1 -37.1483 1.15227 433.615 -37.1483 1.15227 433.615
2593 1 -51.0679 3.30909 439.658 -51.0679 3.30909 439.658
2328 1 -36.7296 0.363661 439.335 -36.7296 0.363661 439.335
2301 1 -53.4214 2.57506 439.157 -53.4214 2.57506 439.157
1466 1 -35.6291 3.46194 422.68 -35.6291 3.46194 422.68
2298 1 -55.557 3.34687 435.324 -55.557 3.34687 435.324
2321 1 -41.4361 3.32324 438.331 -41.4361 3.32324 438.331
2313 1 -46.1428 1.85537 437.329 -46.1428 1.85537 437.329
2294 1 -57.2714 3.3294 437.211 -57.2714 3.3294 437.211
2304 1 -51.707 2.59247 437.27 -51.707 2.59247 437.27
2300 1 -54.0606 1.85845 436.769 -54.0606 1.85845 436.769
2290 1 -59.6252 2.59536 436.71 -59.6252 2.59536 436.71
2318 1 -42.9321 0.384214 436.886 -42.9321 0.384214 436.886
2327 1 -37.3679 4.07432 436.946 -37.3679 4.07432 436.946
2004 1 -57.9107 2.61285 434.823 -57.9107 2.61285 434.823
2013 1 -52.346 1.87588 434.881 -52.346 1.87588 434.881
2288 1 -61.1217 4.08383 435.266 -61.1217 4.08383 435.266
2037 1 -39.5019 0.41848 433.113 -39.5019 0.41848 433.113
1739 1 -44.6282 4.16732 426.391 -44.6282 4.16732 426.391
1753 1 -36.0704 0.452118 429.341 -36.0704 0.452118 429.341
2307 1 -49.9925 2.60986 435.383 -49.9925 2.60986 435.383
2314 1 -45.2855 4.07775 436.385 -45.2855 4.07775 436.385
2040 1 -37.7863 0.435394 431.227 -37.7863 0.435394 431.227
2320 1 -42.0746 2.60655 435.943 -42.0746 2.60655 435.943
2292 1 -58.7679 0.390375 435.767 -58.7679 0.390375 435.767
2311 1 -47.6389 3.34382 435.884 -47.6389 3.34382 435.884
2302 1 -53.2033 4.08089 435.825 -53.2033 4.08089 435.825
2296 1 -56.4142 1.12441 436.267 -56.4142 1.12441 436.267
1463 1 -37.9834 2.72862 422.178 -37.9834 2.72862 422.178
2287 1 -61.3396 2.5779 438.597 -61.3396 2.5779 438.597
2291 1 -58.9858 3.31194 439.098 -58.9858 3.31194 439.098
2317 1 -43.7894 2.58931 437.83 -43.7894 2.58931 437.83
2038 1 -38.6442 2.64069 432.17 -38.6442 2.64069 432.17
2305 1 -50.8498 0.387444 436.326 -50.8498 0.387444 436.326
2332 1 -35.0146 0.380771 437.448 -35.0146 0.380771 437.448
1709 1 -62.1817 4.15694 427.158 -62.1817 4.15694 427.158
1468 1 -34.7706 1.25632 421.738 -34.7706 1.25632 421.738
1454 1 -42.9123 4.18419 424.505 -42.9123 4.18419 424.505
1429 1 -57.0367 4.20929 421.497 -57.0367 4.20929 421.497
1133 1 -61.7444 2.74144 420.495 -61.7444 2.74144 420.495
1175 1 -36.2666 2.74487 420.293 -36.2666 2.74487 420.293
2616 1 -37.8057 1.06315 443.61 -37.8057 1.06315 443.61
2901 1 -39.5198 1.04583 445.497 -39.5198 1.04583 445.497
2907 1 -36.3099 4.00222 445.055 -36.3099 4.00222 445.055
3194 1 -37.3848 0.274073 449.33 -37.3848 0.274073 449.33
2587 1 -54.2785 0.35263 440.1 -54.2785 0.35263 440.1
2597 1 -48.7145 4.0431 440.159 -48.7145 4.0431 440.159
2584 1 -55.9927 0.33524 441.988 -55.9927 0.33524 441.988
2581 1 -57.7067 0.317886 443.875 -57.7067 0.317886 443.875
2868 1 -59.4207 0.30058 445.762 -59.4207 0.30058 445.762
2865 1 -61.1346 0.283332 447.649 -61.1346 0.283332 447.649
2601 1 -46.3611 0.349625 440.66 -46.3611 0.349625 440.66
2598 1 -48.0753 0.332298 442.547 -48.0753 0.332298 442.547
2885 1 -49.7894 0.31499 444.435 -49.7894 0.31499 444.435
2882 1 -51.5032 0.297732 446.322 -51.5032 0.297732 446.322
2879 1 -53.217 0.280554 448.209 -53.217 0.280554 448.209
2612 1 -40.1587 0.329159 443.108 -40.1587 0.329159 443.108
2898 1 -41.8728 0.311849 444.995 -41.8728 0.311849 444.995
2895 1 -43.5867 0.294546 446.882 -43.5867 0.294546 446.882
3180 1 -45.3003 0.277278 448.769 -45.3003 0.277278 448.769
2576 1 -60.7 3.29451 440.985 -60.7 3.29451 440.985
2574 1 -62.4142 3.27712 442.873 -62.4142 3.27712 442.873
2589 1 -52.7821 3.29172 441.545 -52.7821 3.29172 441.545
2586 1 -54.4962 3.27438 443.432 -54.4962 3.27438 443.432
2874 1 -56.2101 3.25709 445.319 -56.2101 3.25709 445.319
2871 1 -57.924 3.23986 447.207 -57.924 3.23986 447.207
3155 1 -59.6377 3.2227 449.094 -59.6377 3.2227 449.094
2607 1 -43.1507 3.30597 440.218 -43.1507 3.30597 440.218
2604 1 -44.865 3.28866 442.105 -44.865 3.28866 442.105
2600 1 -46.5791 3.27135 443.992 -46.5791 3.27135 443.992
2887 1 -48.293 3.25405 445.88 -48.293 3.25405 445.88
2884 1 -50.0068 3.23682 447.767 -50.0068 3.23682 447.767
3168 1 -51.7204 3.21966 449.654 -51.7204 3.21966 449.654
2900 1 -40.3768 3.2509 446.44 -40.3768 3.2509 446.44
2897 1 -42.0905 3.2336 448.327 -42.0905 3.2336 448.327
2582 1 -57.4892 1.82357 440.543 -57.4892 1.82357 440.543
2579 1 -59.2034 1.80617 442.43 -59.2034 1.80617 442.43
2866 1 -60.9174 1.78881 444.317 -60.9174 1.78881 444.317
2578 1 -59.8429 1.08949 440.042 -59.8429 1.08949 440.042
2595 1 -49.5716 1.8207 441.103 -49.5716 1.8207 441.103
2592 1 -51.2857 1.80336 442.99 -51.2857 1.80336 442.99
2880 1 -52.9997 1.78607 444.877 -52.9997 1.78607 444.877
2877 1 -54.7135 1.76884 446.764 -54.7135 1.76884 446.764
2873 1 -56.4273 1.7517 448.651 -56.4273 1.7517 448.651
2609 1 -41.6547 1.81756 441.663 -41.6547 1.81756 441.663
2606 1 -43.3689 1.80025 443.55 -43.3689 1.80025 443.55
2892 1 -45.0829 1.78294 445.437 -45.0829 1.78294 445.437
2890 1 -46.7967 1.76566 447.324 -46.7967 1.76566 447.324
3174 1 -48.5103 1.74844 449.212 -48.5103 1.74844 449.212
2618 1 -36.9485 3.28552 442.666 -36.9485 3.28552 442.666
2585 1 -55.1356 2.55766 441.044 -55.1356 2.55766 441.044
2583 1 -56.8497 2.54028 442.931 -56.8497 2.54028 442.931
2870 1 -58.5637 2.52295 444.818 -58.5637 2.52295 444.818
2867 1 -60.2776 2.50568 446.705 -60.2776 2.50568 446.705
2863 1 -61.9915 2.48846 448.592 -61.9915 2.48846 448.592
2599 1 -47.2183 2.55469 441.604 -47.2183 2.55469 441.604
2596 1 -48.9324 2.53737 443.491 -48.9324 2.53737 443.491
2883 1 -50.6463 2.52008 445.378 -50.6463 2.52008 445.378
2881 1 -52.3601 2.50286 447.266 -52.3601 2.50286 447.266
3164 1 -54.0738 2.48573 449.153 -54.0738 2.48573 449.153
2610 1 -41.0158 2.53423 444.052 -41.0158 2.53423 444.052
2896 1 -42.7298 2.51692 445.939 -42.7298 2.51692 445.939
2893 1 -44.4435 2.49963 447.826 -44.4435 2.49963 447.826
3178 1 -46.1571 2.48239 449.713 -46.1571 2.48239 449.713
2575 1 -61.5571 1.07208 441.929 -61.5571 1.07208 441.929
2591 1 -51.925 1.08668 440.601 -51.925 1.08668 440.601
2588 1 -53.6392 1.06932 442.489 -53.6392 1.06932 442.489
2876 1 -55.3532 1.052 444.376 -55.3532 1.052 444.376
2872 1 -57.0671 1.03474 446.263 -57.0671 1.03474 446.263
2869 1 -58.7809 1.01754 448.15 -58.7809 1.01754 448.15
2605 1 -44.0079 1.08359 441.162 -44.0079 1.08359 441.162
2602 1 -45.7221 1.06628 443.049 -45.7221 1.06628 443.049
2889 1 -47.4361 1.04897 444.936 -47.4361 1.04897 444.936
2886 1 -49.1499 1.0317 446.823 -49.1499 1.0317 446.823
3170 1 -50.8636 1.0145 448.71 -50.8636 1.0145 448.71
2899 1 -41.2337 1.02852 447.384 -41.2337 1.02852 447.384
3184 1 -42.9473 1.01124 449.271 -42.9473 1.01124 449.271
2580 1 -58.3463 4.02859 441.486 -58.3463 4.02859 441.486
2577 1 -60.0604 4.01121 443.374 -60.0604 4.01121 443.374
2864 1 -61.7745 3.99388 445.261 -61.7745 3.99388 445.261
2862 1 -62.6315 1.77152 446.204 -62.6315 1.77152 446.204
2594 1 -50.4287 4.02575 442.046 -50.4287 4.02575 442.046
2590 1 -52.1427 4.00844 443.933 -52.1427 4.00844 443.933
2878 1 -53.8566 3.99117 445.821 -53.8566 3.99117 445.821
2875 1 -55.5704 3.97398 447.708 -55.5704 3.97398 447.708
3159 1 -57.2841 3.95689 449.595 -57.2841 3.95689 449.595
2611 1 -40.7975 4.03993 440.72 -40.7975 4.03993 440.72
2608 1 -42.5118 4.02263 442.607 -42.5118 4.02263 442.607
2894 1 -44.2259 4.00532 444.494 -44.2259 4.00532 444.494
2891 1 -45.9398 3.98802 446.381 -45.9398 3.98802 446.381
2888 1 -47.6535 3.97077 448.268 -47.6535 3.97077 448.268
2904 1 -38.0239 3.98488 446.942 -38.0239 3.98488 446.942
2621 1 -35.2339 3.30276 440.78 -35.2339 3.30276 440.78
2617 1 -37.587 2.56879 440.278 -37.587 2.56879 440.278
2614 1 -39.3016 2.55153 442.165 -39.3016 2.55153 442.165
2908 1 -35.6711 0.291431 447.444 -35.6711 0.291431 447.444
2619 1 -36.0913 1.08042 441.723 -36.0913 1.08042 441.723
2906 1 -36.528 2.49647 448.387 -36.528 2.49647 448.387
2905 1 -37.1669 1.77982 445.998 -37.1669 1.77982 445.998
2620 1 -35.4528 1.79715 444.111 -35.4528 1.79715 444.111
3190 1 -39.7376 3.96756 448.829 -39.7376 3.96756 448.829
2902 1 -38.8808 1.76249 447.885 -38.8808 1.76249 447.885
2903 1 -38.6628 3.26822 444.553 -38.6628 3.26822 444.553
2615 1 -38.4443 0.346443 441.221 -38.4443 0.346443 441.221
2909 1 -34.8142 2.51384 446.5 -34.8142 2.51384 446.5
14 1 -54.0234 4.42515 399.749 -54.0234 4.42515 399.749
7 1 -58.6476 2.93077 398.845 -58.6476 2.93077 398.845
25 1 -46.0855 4.41934 400.224 -46.0855 4.41934 400.224
38 1 -38.144 4.37038 400.737 -38.144 4.37038 400.737
23 1 -47.8018 4.3853 402.102 -47.8018 4.3853 402.102
287 1 -51.2295 4.34375 405.847 -51.2295 4.34375 405.847
878 1 -42.2511 4.27203 414.514 -42.2511 4.27203 414.514
579 1 -48.4581 4.29464 412.066 -48.4581 4.29464 412.066
585 1 -45.0234 4.32748 408.297 -45.0234 4.32748 408.297
290 1 -49.517 4.36195 403.963 -49.517 4.36195 403.963
11 1 -55.7155 4.37006 401.549 -55.7155 4.37006 401.549
595 1 -38.8169 4.30454 410.743 -38.8169 4.30454 410.743
1134 1 -61.5256 4.24732 417.163 -61.5256 4.24732 417.163
283 1 -52.9476 4.3299 407.731 -52.9476 4.3299 407.731
582 1 -46.7406 4.31086 410.182 -46.7406 4.31086 410.182
276 1 -57.4434 4.37245 403.409 -57.4434 4.37245 403.409
569 1 -54.6656 4.31616 409.614 -54.6656 4.31616 409.614
847 1 -59.8104 4.26464 415.276 -59.8104 4.26464 415.276
556 1 -62.5842 4.32036 409.054 -62.5842 4.32036 409.054
272 1 -59.1622 4.36128 405.276 -59.1622 4.36128 405.276
3 1 -60.4687 2.93911 400.533 -60.4687 2.93911 400.533
35 1 -39.8668 4.37613 402.629 -39.8668 4.37613 402.629
598 1 -37.0996 4.32085 408.858 -37.0996 4.32085 408.858
850 1 -58.0954 4.28206 413.388 -58.0954 4.28206 413.388