ITEM: TIMESTEP
0
ITEM: NUMBER OF ATOMS
4630
ITEM: BOX BOUNDS xy xz yz pp pp pp
-5.5440988501800000e+01 9.8460020349999994e+01 0.0000000000000000e+00
0.0000000000000000e+00 4.4274527100805940e+00 0.0000000000000000e+00
3.8000000000000000e+02 5.0000000000000000e+02 0.0000000000000000e+00
ITEM: ATOMS id type x y z xu yu zu
27 1 -41.7271 2.7151 397.867 -41.7271 2.7151 397.867
36 1 -36.3137 1.96523 397.493 -36.3137 1.96523 397.493
31 1 -39.3365 3.38445 398.116 -39.3365 3.38445 398.116
22 1 -44.7694 4.14108 398.528 -44.7694 4.14108 398.528
20 1 -45.4947 1.92657 399.468 -45.4947 1.92657 399.468
40 1 -33.9255 2.63801 397.75 -33.9255 2.63801 397.75
34 1 -37.0246 4.16683 398.421 -37.0246 4.16683 398.421
17 1 -47.8104 1.16243 399.174 -47.8104 1.16243 399.174
9 1 -53.1637 1.83856 399.521 -53.1637 1.83856 399.521
43 1 -31.615 3.42141 398.058 -31.615 3.42141 398.058
12 1 -50.8911 2.69174 399.858 -50.8911 2.69174 399.858
29 1 -40.093 1.16 399.054 -40.093 1.16 399.054
853 1 -51.316 3.10124 414.472 -51.316 3.10124 414.472
873 1 -40.5561 1.62807 413.705 -40.5561 1.62807 413.705
865 1 -44.3735 0.858122 415.435 -44.3735 0.858122 415.435
1174 1 -32.0364 2.30128 416.032 -32.0364 2.30128 416.032
883 1 -35.1695 0.888582 413.33 -35.1695 0.888582 413.33
863 1 -45.9386 2.36615 414.087 -45.9386 2.36615 414.087
315 1 -31.5477 1.85356 401.422 -31.5477 1.85356 401.422
307 1 -36.1288 3.29276 404.158 -36.1288 3.29276 404.158
1150 1 -45.8752 0.813931 417.488 -45.8752 0.813931 417.488
855 1 -49.7526 1.59349 415.819 -49.7526 1.59349 415.819
310 1 -34.6279 3.3282 402.116 -34.6279 3.3282 402.116
871 1 -41.3068 3.82068 414.731 -41.3068 3.82068 414.731
16 1 -48.5508 3.3668 400.119 -48.5508 3.3668 400.119
309 1 -34.5549 1.78581 405.507 -34.5549 1.78581 405.507
1156 1 -42.8089 3.77762 416.783 -42.8089 3.77762 416.783
867 1 -43.6231 3.09351 414.409 -43.6231 3.09351 414.409
1159 1 -40.4931 0.0778006 417.105 -40.4931 4.50525 417.105
1168 1 -35.1072 3.76748 416.729 -35.1072 3.76748 416.729
1170 1 -34.3549 1.57445 415.705 -34.3549 1.57445 415.705
594 1 -35.3053 3.98126 406.531 -35.3053 3.98126 406.531
37 1 -35.4454 2.62748 399.752 -35.4454 2.62748 399.752
851 1 -52.0654 0.864893 415.499 -52.0654 0.864893 415.499
857 1 -49.0028 3.82973 414.793 -49.0028 3.82973 414.793
592 1 -36.0554 1.74864 407.555 -36.0554 1.74864 407.555
849 1 -52.8153 3.05569 416.526 -52.8153 3.05569 416.526
877 1 -38.2389 2.35499 414.029 -38.2389 2.35499 414.029
1143 1 -50.5028 3.78444 416.847 -50.5028 3.78444 416.847
1140 1 -52.0042 3.73806 418.901 -52.0042 3.73806 418.901
845 1 -55.127 2.32719 416.206 -55.127 2.32719 416.206
875 1 -38.9901 0.120365 415.054 -38.9901 4.54782 415.054
886 1 -33.6667 0.928626 411.282 -33.6667 0.928626 411.282
891 1 -30.5945 3.88784 410.587 -30.5945 3.88784 410.587
39 1 -33.8822 1.1295 401.091 -33.8822 1.1295 401.091
1177 1 -30.4708 0.793955 417.383 -30.4708 0.793955 417.383
1167 1 -35.8597 1.53282 417.754 -35.8597 1.53282 417.754
8 1 -53.9372 4.10819 400.576 -53.9372 4.10819 400.576
869 1 -42.0578 1.58556 415.757 -42.0578 1.58556 415.757
1136 1 -54.316 3.00884 418.581 -54.316 3.00884 418.581
1162 1 -38.929 2.99769 418.454 -38.929 2.99769 418.454
15 1 -49.3053 1.1493 401.188 -49.3053 1.1493 401.188
280 1 -50.7927 1.11805 403.237 -50.7927 1.11805 403.237
277 1 -52.2843 1.09055 405.287 -52.2843 1.09055 405.287
273 1 -53.7708 1.04953 407.344 -53.7708 1.04953 407.344
560 1 -55.2625 1.00811 409.4 -55.2625 1.00811 409.4
26 1 -41.5977 1.14728 401.117 -41.5977 1.14728 401.117
294 1 -43.0952 1.11714 403.181 -43.0952 1.11714 403.181
291 1 -44.5892 1.07893 405.233 -44.5892 1.07893 405.233
576 1 -46.0818 1.03802 407.285 -46.0818 1.03802 407.285
573 1 -47.5755 0.996634 409.337 -47.5755 0.996634 409.337
570 1 -49.0703 0.953787 411.39 -49.0703 0.953787 411.39
854 1 -50.5669 0.909834 413.444 -50.5669 0.909834 413.444
305 1 -36.8779 1.06086 405.18 -36.8779 1.06086 405.18
589 1 -38.3762 1.02286 407.229 -38.3762 1.02286 407.229
586 1 -39.8745 0.983532 409.279 -39.8745 0.983532 409.279
872 1 -41.3733 0.942954 411.331 -41.3733 0.942954 411.331
599 1 -32.1639 0.967416 409.235 -32.1639 0.967416 409.235
1152 1 -45.1242 3.04989 416.461 -45.1242 3.04989 416.461
19 1 -46.2519 4.11248 400.503 -46.2519 4.11248 400.503
286 1 -47.738 4.07584 402.522 -47.738 4.07584 402.522
282 1 -49.2214 4.04099 404.579 -49.2214 4.04099 404.579
279 1 -50.7122 4.00735 406.633 -50.7122 4.00735 406.633
565 1 -52.2026 3.96745 408.691 -52.2026 3.96745 408.691
563 1 -53.6962 3.9256 410.747 -53.6962 3.9256 410.747
846 1 -55.1919 3.88211 412.803 -55.1919 3.88211 412.803
32 1 -38.5299 4.11007 400.447 -38.5299 4.11007 400.447
300 1 -40.0276 4.07484 402.485 -40.0276 4.07484 402.485
297 1 -41.522 4.03742 404.532 -41.522 4.03742 404.532
293 1 -43.0165 3.99906 406.582 -43.0165 3.99906 406.582
578 1 -44.5114 3.95875 408.634 -44.5114 3.95875 408.634
575 1 -46.0073 3.91709 410.686 -46.0073 3.91709 410.686
860 1 -47.5043 3.874 412.739 -47.5043 3.874 412.739
591 1 -36.8054 3.94306 408.58 -36.8054 3.94306 408.58
588 1 -38.3053 3.90345 410.629 -38.3053 3.90345 410.629
874 1 -39.8057 3.86263 412.68 -39.8057 3.86263 412.68
10 1 -52.372 2.61906 401.895 -52.372 2.61906 401.895
274 1 -53.8618 2.6051 403.935 -53.8618 2.6051 403.935
271 1 -55.3397 2.55992 405.998 -55.3397 2.55992 405.998
24 1 -43.1948 2.66789 399.832 -43.1948 2.66789 399.832
21 1 -44.6816 2.6248 401.843 -44.6816 2.6248 401.843
288 1 -46.1651 2.58489 403.887 -46.1651 2.58489 403.887
285 1 -47.6527 2.54245 405.936 -47.6527 2.54245 405.936
571 1 -49.1439 2.50244 407.987 -49.1439 2.50244 407.987
568 1 -50.6364 2.4605 410.041 -50.6364 2.4605 410.041
852 1 -52.1313 2.41736 412.096 -52.1313 2.41736 412.096
848 1 -53.6284 2.3731 414.151 -53.6284 2.3731 414.151
306 1 -36.9524 2.59992 401.785 -36.9524 2.59992 401.785
302 1 -38.4517 2.56662 403.829 -38.4517 2.56662 403.829
299 1 -39.9481 2.52961 405.879 -39.9481 2.52961 405.879
583 1 -41.4447 2.49106 407.93 -41.4447 2.49106 407.93
581 1 -42.9418 2.45083 409.982 -42.9418 2.45083 409.982
866 1 -44.4397 2.40919 412.034 -44.4397 2.40919 412.034
880 1 -36.737 2.39601 411.979 -36.737 2.39601 411.979
312 1 -33.053 1.82108 403.462 -33.053 1.82108 403.462
13 1 -50.0424 3.3433 402.192 -50.0424 3.3433 402.192
278 1 -51.5385 3.3191 404.254 -51.5385 3.3191 404.254
275 1 -53.0265 3.2841 406.313 -53.0265 3.2841 406.313
562 1 -54.5159 3.24254 408.372 -54.5159 3.24254 408.372
1166 1 -36.6125 3.7254 418.778 -36.6125 3.7254 418.778
889 1 -31.3465 1.65475 411.61 -31.3465 1.65475 411.61
28 1 -40.8514 3.37665 400.121 -40.8514 3.37665 400.121
296 1 -42.35 3.3472 402.16 -42.35 3.3472 402.16
292 1 -43.8433 3.31221 404.209 -43.8433 3.31221 404.209
289 1 -45.3354 3.27246 406.26 -45.3354 3.27246 406.26
574 1 -46.8285 3.23127 408.311 -46.8285 3.23127 408.311
572 1 -48.3227 3.18916 410.364 -48.3227 3.18916 410.364
856 1 -49.8183 3.14566 412.417 -49.8183 3.14566 412.417
303 1 -37.6274 3.25566 406.205 -37.6274 3.25566 406.205
587 1 -39.1254 3.21702 408.254 -39.1254 3.21702 408.254
584 1 -40.6238 3.17711 410.305 -40.6238 3.17711 410.305
870 1 -42.123 3.13593 412.356 -42.123 3.13593 412.356
6 1 -54.6973 1.91612 401.54 -54.6973 1.91612 401.54
890 1 -30.5311 2.34153 413.985 -30.5311 2.34153 413.985
18 1 -46.9908 1.88113 401.507 -46.9908 1.88113 401.507
284 1 -48.4763 1.84573 403.556 -48.4763 1.84573 403.556
281 1 -49.9669 1.81167 405.609 -49.9669 1.81167 405.609
567 1 -51.4573 1.77437 407.663 -51.4573 1.77437 407.663
564 1 -52.9491 1.73296 409.719 -52.9491 1.73296 409.719
561 1 -54.4439 1.69042 411.775 -54.4439 1.69042 411.775
33 1 -37.7913 1.91542 399.453 -37.7913 1.91542 399.453
30 1 -39.2865 1.87632 401.457 -39.2865 1.87632 401.457
298 1 -40.7755 1.84173 403.505 -40.7755 1.84173 403.505
295 1 -42.2692 1.8047 405.556 -42.2692 1.8047 405.556
580 1 -43.7639 1.76533 407.608 -43.7639 1.76533 407.608
577 1 -45.2593 1.72433 409.66 -45.2593 1.72433 409.66
862 1 -46.7557 1.68198 411.712 -46.7557 1.68198 411.712
590 1 -37.5553 1.7097 409.604 -37.5553 1.7097 409.604
876 1 -39.0554 1.66946 411.654 -39.0554 1.66946 411.654
1163 1 -38.1767 0.805366 417.429 -38.1767 0.805366 417.429
1153 1 -44.3121 3.7335 418.835 -44.3121 3.7335 418.835
311 1 -33.8035 4.01767 404.485 -33.8035 4.01767 404.485
42 1 -32.381 1.16994 399.091 -32.381 1.16994 399.091
1135 1 -55.067 0.771238 419.609 -55.067 0.771238 419.609
1171 1 -33.5423 2.26012 418.08 -33.5423 2.26012 418.08
1139 1 -52.7554 1.50074 419.928 -52.7554 1.50074 419.928
601 1 -31.4123 3.19999 408.212 -31.4123 3.19999 408.212
313 1 -32.2984 4.05267 402.438 -32.2984 4.05267 402.438
858 1 -48.2533 1.63826 413.766 -48.2533 1.63826 413.766
868 1 -42.8729 0.901156 413.383 -42.8729 0.901156 413.383
1147 1 -48.1894 0.0856279 417.167 -48.1894 4.51308 417.167
593 1 -35.2356 2.43589 409.93 -35.2356 2.43589 409.93
308 1 -35.3786 1.09631 403.133 -35.3786 1.09631 403.133
861 1 -46.6886 0.130434 415.114 -46.6886 4.55789 415.114
1158 1 -41.2449 2.26987 418.131 -41.2449 2.26987 418.131
884 1 -34.4181 3.12247 412.306 -34.4181 3.12247 412.306
881 1 -35.921 3.08188 414.354 -35.921 3.08188 414.354
885 1 -33.6026 3.80864 414.681 -33.6026 3.80864 414.681
859 1 -47.4388 2.32189 416.14 -47.4388 2.32189 416.14
596 1 -33.7343 2.47442 407.883 -33.7343 2.47442 407.883
879 1 -36.6727 0.847462 415.379 -36.6727 0.847462 415.379
1172 1 -32.7893 0.0670825 417.056 -32.7893 4.49454 417.056
1154 1 -43.5604 1.54197 417.809 -43.5604 1.54197 417.809
887 1 -32.8505 1.61513 413.657 -32.8505 1.61513 413.657
597 1 -32.9153 3.16191 410.258 -32.9153 3.16191 410.258
1161 1 -39.7415 2.31294 416.08 -39.7415 2.31294 416.08
1138 1 -53.5655 0.818692 417.554 -53.5655 0.818692 417.554
1149 1 -46.6265 3.00516 418.514 -46.6265 3.00516 418.514
41 1 -33.1236 3.36302 400.083 -33.1236 3.36302 400.083
888 1 -32.0985 3.84881 412.633 -32.0985 3.84881 412.633
1165 1 -37.4246 3.04026 416.404 -37.4246 3.04026 416.404
1141 1 -51.2533 1.54766 417.874 -51.2533 1.54766 417.874
1145 1 -48.9403 2.27655 418.194 -48.9403 2.27655 418.194
600 1 -32.2321 2.51138 405.837 -32.2321 2.51138 405.837
1148 1 -47.3781 0.76867 419.541 -47.3781 0.76867 419.541
882 1 -35.9863 0.202374 410.955 -35.9863 4.62983 410.955
1157 1 -41.997 0.0342367 419.157 -41.997 4.46169 419.157
1144 1 -49.6915 0.0397626 419.221 -49.6915 4.46722 419.221
602 1 -30.6604 1.00475 407.189 -30.6604 1.00475 407.189
1755 1 -29.5542 2.81043 426.552 -29.5542 2.81043 426.552
1460 1 -34.2396 2.90348 422.502 -34.2396 2.90348 422.502
2308 1 -42.4901 3.31608 437.177 -42.4901 3.31608 437.177
2316 1 -37.9146 1.90549 434.419 -37.9146 1.90549 434.419
2312 1 -40.1784 4.04857 437.497 -40.1784 4.04857 437.497
1464 1 -31.9227 3.63138 422.828 -31.9227 3.63138 422.828
1461 1 -33.4855 0.710974 421.478 -33.4855 0.710974 421.478
2039 1 -31.7753 3.41168 433.017 -31.7753 3.41168 433.017
2613 1 -33.2426 1.81769 438.461 -33.2426 1.81769 438.461
1467 1 -29.6054 4.35897 423.155 -29.6054 4.35897 423.155
2603 1 -38.621 2.54347 438.843 -38.621 2.54347 438.843
1443 1 -43.5019 4.41715 421.209 -43.5019 4.41715 421.209
1748 1 -33.4321 3.58898 424.875 -33.4321 3.58898 424.875
2023 1 -40.2274 1.17391 434.098 -40.2274 1.17391 434.098
2310 1 -40.9323 1.81076 438.523 -40.9323 1.81076 438.523
1151 1 -45.064 1.49732 419.862 -45.064 1.49732 419.862
2303 1 -45.5551 0.345496 437.884 -45.5551 0.345496 437.884
2299 1 -47.8668 4.04066 437.565 -47.8668 4.04066 437.565
2033 1 -34.8458 0.445643 433.717 -34.8458 0.445643 433.717
1433 1 -48.882 0.722387 421.595 -48.882 0.722387 421.595
1430 1 -50.387 0.675175 423.648 -50.387 0.675175 423.648
1426 1 -51.8928 0.627213 425.702 -51.8928 0.627213 425.702
1713 1 -53.3995 0.578737 427.757 -53.3995 0.578737 427.757
1710 1 -54.9068 0.530009 429.81 -54.9068 0.530009 429.81
2330 1 -29.4164 2.59301 436.737 -29.4164 2.59301 436.737
1160 1 -39.6815 0.762331 419.479 -39.6815 0.762331 419.479
1447 1 -41.1871 0.71837 421.53 -41.1871 0.71837 421.53
1444 1 -42.6935 0.673481 423.582 -42.6935 0.673481 423.582
1730 1 -44.2005 0.627665 425.634 -44.2005 0.627665 425.634
1727 1 -45.708 0.58096 427.687 -45.708 0.58096 427.687
1724 1 -47.2157 0.533457 429.74 -47.2157 0.533457 429.74
2008 1 -48.7234 0.485304 431.793 -48.7234 0.485304 431.793
2006 1 -50.2309 0.436698 433.847 -50.2309 0.436698 433.847
1458 1 -34.9938 0.668351 423.526 -34.9938 0.668351 423.526
1743 1 -36.5027 0.624936 425.575 -36.5027 0.624936 425.575
1740 1 -38.0121 0.580667 427.624 -38.0121 0.580667 427.624
2026 1 -39.5216 0.535475 429.675 -39.5216 0.535475 429.675
2022 1 -41.031 0.489318 431.726 -41.031 0.489318 431.726
2019 1 -42.54 0.442202 433.778 -42.54 0.442202 433.778
2309 1 -41.7362 1.12644 436.15 -41.7362 1.12644 436.15
1137 1 -53.5069 3.69063 420.956 -53.5069 3.69063 420.956
1421 1 -55.0111 3.64235 423.01 -55.0111 3.64235 423.01
1439 1 -45.8162 3.68835 420.888 -45.8162 3.68835 420.888
1435 1 -47.3213 3.64221 422.941 -47.3213 3.64221 422.941
1432 1 -48.8271 3.59517 424.995 -48.8271 3.59517 424.995
1719 1 -50.3337 3.54737 427.048 -50.3337 3.54737 427.048
1716 1 -51.8408 3.49903 429.102 -51.8408 3.49903 429.102
2001 1 -53.3482 3.45037 431.156 -53.3482 3.45037 431.156
1998 1 -54.8558 3.40164 433.21 -54.8558 3.40164 433.21
2323 1 -33.2879 3.36775 435.064 -33.2879 3.36775 435.064
1453 1 -38.1185 3.68246 420.828 -38.1185 3.68246 420.828
1450 1 -39.6252 3.63863 422.878 -39.6252 3.63863 422.878
1446 1 -41.1327 3.59391 424.929 -41.1327 3.59391 424.929
1732 1 -42.6406 3.54828 426.981 -42.6406 3.54828 426.981
1729 1 -44.1487 3.50174 429.033 -44.1487 3.50174 429.033
2014 1 -45.6569 3.45436 431.086 -45.6569 3.45436 431.086
2011 1 -47.1648 3.40627 433.139 -47.1648 3.40627 433.139
1745 1 -34.9421 3.54584 426.923 -34.9421 3.54584 426.923
1742 1 -36.4523 3.50186 428.972 -36.4523 3.50186 428.972
2028 1 -37.9626 3.45694 431.022 -37.9626 3.45694 431.022
2025 1 -39.4726 3.411 433.072 -39.4726 3.411 433.072
1427 1 -51.9469 2.18281 422.302 -51.9469 2.18281 422.302
1424 1 -53.452 2.13469 424.356 -53.452 2.13469 424.356
1711 1 -54.9581 2.08606 426.411 -54.9581 2.08606 426.411
2322 1 -34.0438 1.1316 436.089 -34.0438 1.1316 436.089
1750 1 -31.8708 2.08229 426.225 -31.8708 2.08229 426.225
1155 1 -42.7494 2.22581 420.183 -42.7494 2.22581 420.183
1441 1 -44.2547 2.18078 422.235 -44.2547 2.18078 422.235
1438 1 -45.7607 2.1348 424.288 -45.7607 2.1348 424.288
1725 1 -47.2674 2.08793 426.341 -47.2674 2.08793 426.341
1722 1 -48.7746 2.04029 428.394 -48.7746 2.04029 428.394
1718 1 -50.2821 1.99205 430.448 -50.2821 1.99205 430.448
2003 1 -51.7896 1.94344 432.501 -51.7896 1.94344 432.501
2000 1 -53.2969 1.89467 434.555 -53.2969 1.89467 434.555
1459 1 -35.0487 2.21813 420.128 -35.0487 2.21813 420.128
1455 1 -36.5559 2.17532 422.177 -36.5559 2.17532 422.177
1452 1 -38.0638 2.13168 424.226 -38.0638 2.13168 424.226
1737 1 -39.5722 2.08716 426.277 -39.5722 2.08716 426.277
1735 1 -41.0809 2.04173 428.328 -41.0809 2.04173 428.328
2020 1 -42.5897 1.99538 430.379 -42.5897 1.99538 430.379
2017 1 -44.0983 1.94813 432.431 -44.0983 1.94813 432.431
2034 1 -34.893 1.99581 430.32 -34.893 1.99581 430.32
2031 1 -36.404 1.95118 432.369 -36.404 1.95118 432.369
2029 1 -37.1594 4.1422 433.394 -37.1594 4.1422 433.394
1146 1 -48.1299 2.95938 420.568 -48.1299 2.95938 420.568
1431 1 -49.6344 2.91261 422.621 -49.6344 2.91261 422.621
1428 1 -51.1398 2.865 424.675 -51.1398 2.865 424.675
1715 1 -52.6461 2.81675 426.729 -52.6461 2.81675 426.729
1712 1 -54.1531 2.76811 428.783 -54.1531 2.76811 428.783
1747 1 -33.3818 2.03946 428.272 -33.3818 2.03946 428.272
1449 1 -40.4342 2.95419 420.505 -40.4342 2.95419 420.505
1445 1 -41.9402 2.90977 422.556 -41.9402 2.90977 422.556
1442 1 -43.4469 2.86441 424.608 -43.4469 2.86441 424.608
1728 1 -44.9542 2.81815 426.66 -44.9542 2.81815 426.66
1726 1 -46.4618 2.77103 428.713 -46.4618 2.77103 428.713
2010 1 -47.9695 2.72318 430.766 -47.9695 2.72318 430.766
2007 1 -49.4772 2.67477 432.82 -49.4772 2.67477 432.82
1456 1 -35.7482 2.86047 424.55 -35.7482 2.86047 424.55
1741 1 -37.2574 2.81664 426.599 -37.2574 2.81664 426.599
1738 1 -38.7668 2.77192 428.649 -38.7668 2.77192 428.649
2024 1 -40.2764 2.72624 430.7 -40.2764 2.72624 430.7
2021 1 -41.7856 2.6796 432.752 -41.7856 2.6796 432.752
2035 1 -34.0899 2.68165 432.692 -34.0899 2.68165 432.692
1754 1 -30.3604 2.12442 424.178 -30.3604 2.12442 424.178
1423 1 -54.2588 1.45285 421.983 -54.2588 1.45285 421.983
2044 1 -28.7033 1.9486 432.32 -28.7033 1.9486 432.32
1437 1 -46.5686 1.45167 421.914 -46.5686 1.45167 421.914
1434 1 -48.0741 1.40507 423.968 -48.0741 1.40507 423.968
1721 1 -49.5803 1.35763 426.021 -49.5803 1.35763 426.021
1717 1 -51.0872 1.30953 428.075 -51.0872 1.30953 428.075
1714 1 -52.5945 1.261 430.129 -52.5945 1.261 430.129
1999 1 -54.102 1.21227 432.183 -54.102 1.21227 432.183
1164 1 -37.3654 1.49031 419.803 -37.3654 1.49031 419.803
1451 1 -38.8718 1.44693 421.853 -38.8718 1.44693 421.853
1448 1 -40.3789 1.40266 423.904 -40.3789 1.40266 423.904
1734 1 -41.8866 1.35748 425.955 -41.8866 1.35748 425.955
1731 1 -43.3946 1.31139 428.007 -43.3946 1.31139 428.007
2016 1 -44.9028 1.26442 430.059 -44.9028 1.26442 430.059
2012 1 -46.4109 1.21667 432.112 -46.4109 1.21667 432.112
2009 1 -47.9186 1.16829 434.166 -47.9186 1.16829 434.166
1746 1 -34.187 1.35379 425.899 -34.187 1.35379 425.899
1744 1 -35.6972 1.31024 427.948 -35.6972 1.31024 427.948
2030 1 -37.2075 1.26579 429.997 -37.2075 1.26579 429.997
2027 1 -38.7177 1.22037 432.047 -38.7177 1.22037 432.047
2325 1 -32.5317 1.17613 434.04 -32.5317 1.17613 434.04
1749 1 -32.6263 4.2747 427.248 -32.6263 4.2747 427.248
1425 1 -52.6993 4.37256 423.329 -52.6993 4.37256 423.329
1736 1 -40.3265 4.27829 427.302 -40.3265 4.27829 427.302
1142 1 -50.443 2.23017 420.248 -50.443 2.23017 420.248
1720 1 -49.5283 4.22996 429.421 -49.5283 4.22996 429.421
2005 1 -51.0358 4.1815 431.474 -51.0358 4.1815 431.474
2002 1 -52.5433 4.13279 433.528 -52.5433 4.13279 433.528
1169 1 -34.2954 0.0255012 419.104 -34.2954 4.45295 419.104
1723 1 -48.021 4.27792 427.367 -48.021 4.27792 427.367
1440 1 -45.0076 4.37164 423.261 -45.0076 4.37164 423.261
1733 1 -41.8353 4.2324 429.353 -41.8353 4.2324 429.353
2018 1 -43.3441 4.18559 431.405 -43.3441 4.18559 431.405
2015 1 -44.8524 4.13792 433.458 -44.8524 4.13792 433.458
2036 1 -34.1374 4.23147 429.296 -34.1374 4.23147 429.296
2032 1 -35.6485 4.18735 431.344 -35.6485 4.18735 431.344
2326 1 -31.7304 1.86257 436.412 -31.7304 1.86257 436.412
1752 1 -31.1155 4.31716 425.202 -31.1155 4.31716 425.202
1457 1 -35.8022 4.41055 421.152 -35.8022 4.41055 421.152
2043 1 -29.5059 1.262 429.947 -29.5059 1.262 429.947
2286 1 -54.8039 1.846 436.609 -54.8039 1.846 436.609
2319 1 -35.5548 1.08577 438.138 -35.5548 1.08577 438.138
1436 1 -46.514 4.3252 425.314 -46.514 4.3252 425.314
1422 1 -54.2049 4.32415 425.384 -54.2049 4.32415 425.384
1173 1 -31.9778 0.752843 419.43 -31.9778 0.752843 419.43
2293 1 -50.9318 1.07049 438.274 -50.9318 1.07049 438.274
2289 1 -53.2443 0.339057 437.955 -53.2443 0.339057 437.955
2295 1 -49.3724 3.99151 439.619 -49.3724 3.99151 439.619
1465 1 -31.1682 1.43859 421.804 -31.1682 1.43859 421.804
2315 1 -37.8667 0.353536 437.817 -37.8667 0.353536 437.817
2331 1 -29.4602 4.1412 433.342 -29.4602 4.1412 433.342
2297 1 -48.6197 1.80237 438.592 -48.6197 1.80237 438.592
2324 1 -32.4867 4.05404 437.436 -32.4867 4.05404 437.436
2306 1 -43.2437 1.07806 438.203 -43.2437 1.07806 438.203
2285 1 -54.7498 0.290513 440.009 -54.7498 0.290513 440.009
1462 1 -32.6774 1.39654 423.852 -32.6774 1.39654 423.852
1751 1 -31.0659 2.76829 428.598 -31.0659 2.76829 428.598
2329 1 -30.2171 1.90612 434.365 -30.2171 1.90612 434.365
2042 1 -30.2624 3.45459 430.97 -30.2624 3.45459 430.97
2041 1 -31.0189 1.21952 431.993 -31.0189 1.21952 431.993
2593 1 -43.9968 3.26731 439.23 -43.9968 3.26731 439.23
2328 1 -30.1733 0.357553 437.76 -30.1733 0.357553 437.76
2301 1 -46.3081 2.53467 438.911 -46.3081 2.53467 438.911
1466 1 -30.4139 3.67308 420.781 -30.4139 3.67308 420.781
2298 1 -48.6722 3.35765 435.192 -48.6722 3.35765 435.192
2321 1 -34.7995 3.32258 437.113 -34.7995 3.32258 437.113
2313 1 -39.4242 1.85866 436.47 -39.4242 1.85866 436.47
2294 1 -50.1788 3.30872 437.246 -50.1788 3.30872 437.246
2304 1 -44.8018 2.58366 436.857 -44.8018 2.58366 436.857
2300 1 -47.1136 1.85142 436.538 -47.1136 1.85142 436.538
2290 1 -52.4912 2.57717 436.928 -52.4912 2.57717 436.928
2318 1 -36.3569 0.400204 435.766 -36.3569 0.400204 435.766
2327 1 -30.9738 4.09822 435.389 -30.9738 4.09822 435.389
2004 1 -50.9845 2.62602 434.874 -50.9845 2.62602 434.874
2013 1 -45.6064 1.90009 434.485 -45.6064 1.90009 434.485
2288 1 -54.0505 4.08404 435.582 -54.0505 4.08404 435.582
2037 1 -33.3339 0.489935 431.668 -33.3339 0.489935 431.668
1739 1 -38.8179 4.32326 425.252 -38.8179 4.32326 425.252
1753 1 -30.31 0.575715 427.575 -30.31 0.575715 427.575
2307 1 -43.2942 2.63203 434.804 -43.2942 2.63203 434.804
2314 1 -38.6695 4.09594 435.445 -38.6695 4.09594 435.445
2040 1 -31.8219 0.533234 429.621 -31.8219 0.533234 429.621
2320 1 -35.6014 2.6368 434.741 -35.6014 2.6368 434.741
2292 1 -51.7379 0.387867 435.901 -51.7379 0.387867 435.901
2311 1 -40.9819 3.36403 435.124 -40.9819 3.36403 435.124
2302 1 -46.3601 4.08955 435.511 -46.3601 4.08955 435.511
2296 1 -49.4256 1.11948 436.219 -49.4256 1.11948 436.219
1463 1 -32.7316 2.94573 420.454 -32.7316 2.94573 420.454
2287 1 -53.9972 2.52846 438.982 -53.9972 2.52846 438.982
2291 1 -51.6845 3.25974 439.301 -51.6845 3.25974 439.301
2317 1 -37.112 2.59075 436.791 -37.112 2.59075 436.791
2038 1 -32.5779 2.72542 430.645 -32.5779 2.72542 430.645
2305 1 -44.0481 0.394208 435.83 -44.0481 0.394208 435.83
2332 1 -28.6593 0.400689 435.714 -28.6593 0.400689 435.714
1468 1 -29.6598 1.47996 419.758 -29.6598 1.47996 419.758
1454 1 -37.3098 4.36733 423.202 -37.3098 4.36733 423.202
1429 1 -51.1948 4.42033 421.275 -51.1948 4.42033 421.275
1175 1 -31.2243 2.98722 418.407 -31.2243 2.98722 418.407
2616 1 -30.8858 0.999351 442.18 -30.8858 0.999351 442.18
2901 1 -32.3951 0.952312 444.231 -32.3951 0.952312 444.231
2907 1 -29.3305 3.92249 443.528 -29.3305 3.92249 443.528
3194 1 -30.0378 0.133086 447.952 -30.0378 0.133086 447.952
2587 1 -47.0607 0.296305 439.938 -47.0607 0.296305 439.938
2597 1 -41.6858 4.00018 439.55 -41.6858 4.00018 439.55
2584 1 -48.5648 0.246936 441.993 -48.5648 0.246936 441.993
2581 1 -50.0672 0.19773 444.048 -50.0672 0.19773 444.048
2868 1 -51.568 0.149045 446.103 -51.568 0.149045 446.103
2865 1 -53.0673 0.101227 448.158 -53.0673 0.101227 448.158
2601 1 -39.3749 0.305669 439.87 -39.3749 0.305669 439.87
2598 1 -40.8808 0.256773 441.923 -40.8808 0.256773 441.923
2885 1 -42.3844 0.207154 443.978 -42.3844 0.207154 443.978
2882 1 -43.8853 0.157232 446.034 -43.8853 0.157232 446.034
2879 1 -45.3837 0.107495 448.091 -45.3837 0.107495 448.091
2612 1 -33.1966 0.266758 441.858 -33.1966 0.266758 441.858
2898 1 -34.7044 0.218859 443.91 -34.7044 0.218859 443.91
2895 1 -36.2087 0.169502 445.964 -36.2087 0.169502 445.964
3180 1 -37.7092 0.11914 448.021 -37.7092 0.11914 448.021
2576 1 -53.1891 3.211 441.355 -53.1891 3.211 441.355
2574 1 -54.6926 3.16276 443.409 -54.6926 3.16276 443.409
2589 1 -45.5018 3.21799 441.285 -45.5018 3.21799 441.285
2586 1 -47.0049 3.16842 443.34 -47.0049 3.16842 443.34
2874 1 -48.5061 3.119 445.395 -48.5061 3.119 445.395
2871 1 -50.0053 3.07012 447.451 -50.0053 3.07012 447.451
3155 1 -51.503 3.02216 449.506 -51.503 3.02216 449.506
2607 1 -36.3096 3.27607 439.164 -36.3096 3.27607 439.164
2604 1 -37.8177 3.22821 441.216 -37.8177 3.22821 441.216
2600 1 -39.3232 3.17921 443.27 -39.3232 3.17921 443.27
2887 1 -40.8259 3.1294 445.326 -40.8259 3.1294 445.326
2884 1 -42.3255 3.07926 447.382 -42.3255 3.07926 447.382
3168 1 -43.8223 3.02938 449.439 -43.8223 3.02938 449.439
2900 1 -33.1484 3.14183 445.257 -33.1484 3.14183 445.257
2897 1 -34.6519 3.09224 447.312 -34.6519 3.09224 447.312
2582 1 -50.1247 1.7532 440.647 -50.1247 1.7532 440.647
2579 1 -51.6282 1.70423 442.701 -51.6282 1.70423 442.701
2866 1 -53.1304 1.65577 444.756 -53.1304 1.65577 444.756
2578 1 -52.4369 1.0216 440.328 -52.4369 1.0216 440.328
2595 1 -42.4387 1.76194 440.577 -42.4387 1.76194 440.577
2592 1 -43.943 1.71247 442.631 -43.943 1.71247 442.631
2880 1 -45.4451 1.66273 444.687 -45.4451 1.66273 444.687
2877 1 -46.9449 1.61313 446.743 -46.9449 1.61313 446.743
2873 1 -48.4426 1.56413 448.799 -48.4426 1.56413 448.799
2609 1 -34.7529 1.77133 440.511 -34.7529 1.77133 440.511
2606 1 -36.2608 1.72346 442.563 -36.2608 1.72346 442.563
2892 1 -37.7658 1.6743 444.617 -37.7658 1.6743 444.617
2890 1 -39.2675 1.62424 446.673 -39.2675 1.62424 446.673
3174 1 -40.7658 1.57383 448.73 -40.7658 1.57383 448.73
2618 1 -30.13 3.23588 441.156 -30.13 3.23588 441.156
2585 1 -47.813 2.48535 440.966 -47.813 2.48535 440.966
2583 1 -49.3162 2.43602 443.021 -49.3162 2.43602 443.021
2870 1 -50.8178 2.38703 445.076 -50.8178 2.38703 445.076
2867 1 -52.3178 2.33873 447.13 -52.3178 2.33873 447.13
2863 1 -53.8165 2.29147 449.185 -53.8165 2.29147 449.185
2599 1 -40.1281 2.49506 440.896 -40.1281 2.49506 440.896
2596 1 -41.6329 2.44576 442.951 -41.6329 2.44576 442.951
2883 1 -43.1352 2.39593 445.006 -43.1352 2.39593 445.006
2881 1 -44.6348 2.34603 447.063 -44.6348 2.34603 447.063
3164 1 -46.1319 2.29658 449.119 -46.1319 2.29658 449.119
2610 1 -33.9509 2.45674 442.884 -33.9509 2.45674 442.884
2896 1 -35.457 2.40807 444.937 -35.457 2.40807 444.937
2893 1 -36.9595 2.35814 446.992 -36.9595 2.35814 446.992
3178 1 -38.4581 2.3075 449.049 -38.4581 2.3075 449.049
2575 1 -53.941 0.97307 442.382 -53.941 0.97307 442.382
2591 1 -44.7495 1.02898 440.257 -44.7495 1.02898 440.257
2588 1 -46.2536 0.979484 442.312 -46.2536 0.979484 442.312
2876 1 -47.7557 0.929943 444.367 -47.7557 0.929943 444.367
2872 1 -49.2559 0.880742 446.423 -49.2559 0.880742 446.423
2869 1 -50.7544 0.832277 448.478 -50.7544 0.832277 448.478
2605 1 -37.0639 1.03857 440.19 -37.0639 1.03857 440.19
2602 1 -38.5708 0.99011 442.243 -38.5708 0.99011 442.243
2889 1 -40.0749 0.940648 444.298 -40.0749 0.940648 444.298
2886 1 -41.5761 0.890609 446.354 -41.5761 0.890609 446.354
3170 1 -43.0743 0.840526 448.411 -43.0743 0.840526 448.411
2899 1 -33.9007 0.903482 446.284 -33.9007 0.903482 446.284
3184 1 -35.4021 0.85326 448.34 -35.4021 0.85326 448.34
2580 1 -50.8766 3.9424 441.674 -50.8766 3.9424 441.674
2577 1 -52.3795 3.89364 443.729 -52.3795 3.89364 443.729
2864 1 -53.881 3.84555 445.783 -53.881 3.84555 445.783
2862 1 -54.6313 1.60813 446.81 -54.6313 1.60813 446.81
2594 1 -43.1911 3.95099 441.604 -43.1911 3.95099 441.604
2590 1 -44.6943 3.90134 443.659 -44.6943 3.90134 443.659
2878 1 -46.1953 3.85161 445.715 -46.1953 3.85161 445.715
2875 1 -47.694 3.80226 447.771 -47.694 3.80226 447.771
3159 1 -49.1907 3.7537 449.826 -49.1907 3.7537 449.826
2611 1 -33.998 4.00843 439.486 -33.998 4.00843 439.486
2608 1 -35.5072 3.9613 441.537 -35.5072 3.9613 441.537
2894 1 -37.0137 3.91275 443.59 -37.0137 3.91275 443.59
2891 1 -38.5171 3.86308 445.645 -38.5171 3.86308 445.645
2888 1 -40.017 3.81277 447.701 -40.017 3.81277 447.701
2904 1 -30.8397 3.87545 445.578 -30.8397 3.87545 445.578
2621 1 -28.6168 3.28013 439.109 -28.6168 3.28013 439.109
2617 1 -30.9299 2.54919 438.784 -30.9299 2.54919 438.784
2614 1 -32.4417 2.50381 440.833 -32.4417 2.50381 440.833
2908 1 -28.5309 0.181355 445.9 -28.5309 0.181355 445.9
2619 1 -29.3737 1.0445 440.132 -29.3737 1.0445 440.132
2906 1 -29.285 2.37123 446.926 -29.285 2.37123 446.926
2905 1 -30.0856 1.68551 444.553 -30.0856 1.68551 444.553
2620 1 -28.5746 1.73148 442.503 -28.5746 1.73148 442.503
3190 1 -32.3448 3.8264 447.632 -32.3448 3.8264 447.632
2902 1 -31.5928 1.63743 446.605 -31.5928 1.63743 446.605
2903 1 -31.6409 3.18979 443.205 -31.6409 3.18979 443.205
2615 1 -31.6861 0.312981 439.808 -31.6861 0.312981 439.808
2909 1 -27.7758 2.41833 444.875 -27.7758 2.41833 444.875
14 1 -50.1999 0.49015 398.925 -50.1999 4.9176 398.925
7 1 -54.6919 3.4426 398.396 -54.6919 3.4426 398.396
25 1 -42.4471 0.488532 398.794 -42.4471 4.91598 398.794
38 1 -34.6784 0.413785 398.688 -34.6784 4.84124 398.688
23 1 -43.9337 0.433844 400.831 -43.9337 4.8613 400.831
287 1 -46.9088 0.348901 404.91 -46.9088 4.77635 404.91
878 1 -37.4879 0.161909 413.004 -37.4879 4.58936 413.004
579 1 -43.6906 0.21647 411.008 -43.6906 4.64392 411.008
585 1 -40.6962 0.296924 406.905 -40.6962 4.72438 406.905
290 1 -45.4228 0.390948 402.865 -45.4228 4.8184 402.865
11 1 -51.6329 0.427208 400.913 -51.6329 4.85466 400.913
595 1 -34.485 0.241625 408.907 -34.485 4.66908 408.907
283 1 -48.3983 0.308551 406.961 -48.3983 4.736 406.961
582 1 -42.1931 0.257434 408.956 -42.1931 4.68489 408.956
276 1 -53.1254 0.406151 402.924 -53.1254 4.8336 402.924
569 1 -49.8899 0.267894 409.013 -49.8899 4.69535 409.013
847 1 -54.3775 0.136631 415.178 -54.3775 4.56408 415.178
272 1 -54.6002 0.368442 404.97 -54.6002 4.79589 404.97
35 1 -36.1938 0.399802 400.746 -36.1938 4.82725 400.746
598 1 -32.9832 0.279419 406.86 -32.9832 4.70687 406.86
850 1 -52.8796 0.181684 413.123 -52.8796 4.60914 413.123
304 1 -37.6998 0.371505 402.802 -37.6998 4.79896 402.802
301 1 -39.199 0.335002 404.854 -39.199 4.76246 404.854
314 1 -31.4802 0.315699 404.815 -31.4802 4.74315 404.815
864 1 -45.189 0.174117 413.061 -45.189 4.60157 413.061
566 1 -51.3835 0.225272 411.068 -51.3835 4.65272 411.068
1176 1 -31.2837 0.107799 415.008 -31.2837 4.53525 415.008
85 1 -6.18216 1.22011 395.058 -6.18216 1.22011 395.058
58 1 -23.1053 1.14671 397.034 -23.1053 1.14671 397.034
45 1 -30.9033 1.21985 397.131 -30.9033 1.21985 397.131
49 1 -28.5154 1.89219 397.39 -28.5154 1.89219 397.39
72 1 -14.6769 3.41408 396.071 -14.6769 3.41408 396.071
80 1 -9.2348 2.64222 395.702 -9.2348 2.64222 395.702
75 1 -12.2913 4.08981 396.334 -12.2913 4.08981 396.334
83 1 -6.91106 3.41992 395.979 -6.91106 3.41992 395.979
52 1 -26.2052 2.67564 397.701 -26.2052 2.67564 397.701
61 1 -20.7958 1.93095 397.347 -20.7958 1.93095 397.347
63 1 -20.0831 4.15696 396.421 -20.0831 4.15696 396.421
87 1 -4.55513 4.09829 396.254 -4.55513 4.09829 396.254
70 1 -15.3871 1.18823 396.998 -15.3871 1.18823 396.998
47 1 -29.2693 4.09541 398.327 -29.2693 4.09541 398.327
912 1 -17.4178 1.58491 413.604 -17.4178 1.58491 413.604