ITEM: TIMESTEP
0
ITEM: NUMBER OF ATOMS
4630
ITEM: BOX BOUNDS xy xz yz pp pp pp
-5.7040988501800001e+01 1.0006002035000000e+02 0.0000000000000000e+00
0.0000000000000000e+00 4.4274527100805940e+00 0.0000000000000000e+00
3.8000000000000000e+02 5.0000000000000000e+02 0.0000000000000000e+00
ITEM: ATOMS id type x y z xu yu zu
27 1 -42.414 2.67397 398.309 -42.414 2.67397 398.309
36 1 -36.9952 1.92467 398.082 -36.9952 1.92467 398.082
31 1 -40.0314 3.34321 398.622 -40.0314 3.34321 398.622
22 1 -45.4718 4.09939 398.888 -45.4718 4.09939 398.888
20 1 -46.2218 1.88493 399.808 -46.2218 1.88493 399.808
40 1 -34.6151 2.59702 398.402 -34.6151 2.59702 398.402
34 1 -37.7295 4.12633 398.99 -37.7295 4.12633 398.99
17 1 -48.5283 1.12036 399.451 -48.5283 1.12036 399.451
9 1 -53.889 1.79615 399.652 -53.889 1.79615 399.652
43 1 -32.3151 3.38098 398.773 -32.3151 3.38098 398.773
12 1 -51.6263 2.64948 400.051 -51.6263 2.64948 400.051
5 1 -56.2649 1.17803 399.333 -56.2649 1.17803 399.333
29 1 -40.8123 1.11886 399.54 -40.8123 1.11886 399.54
853 1 -52.4409 3.06807 414.644 -52.4409 3.06807 414.644
873 1 -41.6612 1.59333 414.175 -41.6612 1.59333 414.175
865 1 -45.5224 0.824936 415.799 -45.5224 0.824936 415.799
1174 1 -33.2038 2.26875 416.732 -33.2038 2.26875 416.732
883 1 -36.2665 0.853719 413.946 -36.2665 0.853719 413.946
863 1 -47.0529 2.33185 414.408 -47.0529 2.33185 414.408
315 1 -32.3365 1.81283 402.138 -32.3365 1.81283 402.138
307 1 -36.9865 3.25277 404.751 -36.9865 3.25277 404.751
1150 1 -47.0764 0.78286 417.809 -47.0764 0.78286 417.809
855 1 -50.9117 1.5614 416.034 -50.9117 1.5614 416.034
310 1 -35.4328 3.28779 402.75 -35.4328 3.28779 402.75
871 1 -42.4381 3.78678 415.179 -42.4381 3.78678 415.179
16 1 -49.294 3.32476 400.375 -49.294 3.32476 400.375
309 1 -35.449 1.74628 406.142 -35.449 1.74628 406.142
1156 1 -43.9924 3.74559 417.189 -43.9924 3.74559 417.189
867 1 -44.7457 3.05938 414.794 -44.7457 3.05938 414.794
1159 1 -41.6851 0.0459844 417.575 -41.6851 4.47344 417.575
1168 1 -36.2911 3.73545 417.346 -36.2911 3.73545 417.346
1170 1 -35.513 1.54156 416.342 -35.513 1.54156 416.342
594 1 -36.2258 3.94215 407.146 -36.2258 3.94215 407.146
37 1 -36.187 2.58661 400.363 -36.187 2.58661 400.363
851 1 -53.217 0.833017 415.65 -53.217 0.833017 415.65
857 1 -50.1354 3.79645 415.029 -50.1354 3.79645 415.029
592 1 -37.0023 1.70999 408.149 -37.0023 1.70999 408.149
849 1 -53.9933 3.0252 416.655 -53.9933 3.0252 416.655
877 1 -39.3528 2.32058 414.562 -39.3528 2.32058 414.562
1143 1 -51.6883 3.75364 417.04 -51.6883 3.75364 417.04
1140 1 -53.2421 3.7101 419.052 -53.2421 3.7101 419.052
845 1 -56.2979 2.29715 416.271 -56.2979 2.29715 416.271
875 1 -40.1301 0.0867712 415.566 -40.1301 4.51422 415.566
886 1 -34.7116 0.892278 411.939 -34.7116 0.892278 411.939
891 1 -31.6229 3.85095 411.327 -31.6229 3.85095 411.327
39 1 -34.6606 1.08904 401.744 -34.6606 1.08904 401.744
1177 1 -31.6731 0.762696 418.125 -31.6731 0.762696 418.125
1167 1 -37.0694 1.50167 418.35 -37.0694 1.50167 418.35
8 1 -54.6912 4.06582 400.685 -54.6912 4.06582 400.685
869 1 -43.2151 1.55257 416.184 -43.2151 1.55257 416.184
1136 1 -55.5469 2.98143 418.667 -55.5469 2.98143 418.667
1162 1 -40.1554 2.96709 418.966 -40.1554 2.96709 418.966
15 1 -50.0772 1.10731 401.423 -50.0772 1.10731 401.423
280 1 -51.62 1.07644 403.431 -51.62 1.07644 403.431
277 1 -53.1671 1.04983 405.438 -53.1671 1.04983 405.438
273 1 -54.7091 1.01016 407.453 -54.7091 1.01016 407.453
560 1 -56.2562 0.970572 409.466 -56.2562 0.970572 409.466
26 1 -42.3713 1.10612 401.562 -42.3713 1.10612 401.562
294 1 -43.9231 1.07625 403.584 -43.9231 1.07625 403.584
291 1 -45.4714 1.03861 405.596 -45.4714 1.03861 405.596
576 1 -47.0182 0.998604 407.606 -47.0182 0.998604 407.606
573 1 -48.566 0.958519 409.616 -48.566 0.958519 409.616
570 1 -50.1147 0.917351 411.627 -50.1147 0.917351 411.627
854 1 -51.6651 0.875474 413.638 -51.6651 0.875474 413.638
305 1 -37.7621 1.02116 405.752 -37.7621 1.02116 405.752
589 1 -39.3135 0.983936 407.76 -39.3135 0.983936 407.76
586 1 -40.8649 0.945644 409.769 -40.8649 0.945644 409.769
872 1 -42.4167 0.906364 411.778 -42.4167 0.906364 411.778
599 1 -33.1565 0.929713 409.933 -33.1565 0.929713 409.933
4 1 -56.2476 4.07575 402.64 -56.2476 4.07575 402.64
1152 1 -46.2993 3.01773 416.804 -46.2993 3.01773 416.804
19 1 -47.0066 4.07083 400.823 -47.0066 4.07083 400.823
286 1 -48.5466 4.03432 402.8 -48.5466 4.03432 402.8
282 1 -50.0851 4.00003 404.815 -50.0851 4.00003 404.815
279 1 -51.6311 3.96743 406.827 -51.6311 3.96743 406.827
565 1 -53.1765 3.92901 408.842 -53.1765 3.92901 408.842
563 1 -54.7249 3.8891 410.856 -54.7249 3.8891 410.856
846 1 -56.2751 3.84806 412.868 -56.2751 3.84806 412.868
32 1 -39.2878 4.06939 400.976 -39.2878 4.06939 400.976
300 1 -40.8387 4.0342 402.972 -40.8387 4.0342 402.972
297 1 -42.3867 3.99715 404.979 -42.3867 3.99715 404.979
293 1 -43.935 3.95948 406.987 -43.935 3.95948 406.987
578 1 -45.4837 3.92021 408.997 -45.4837 3.92021 408.997
575 1 -47.0333 3.87996 411.007 -47.0333 3.87996 411.007
860 1 -48.5838 3.83861 413.018 -48.5838 3.83861 413.018
591 1 -37.7787 3.90493 409.153 -37.7787 3.90493 409.153
588 1 -39.3314 3.86651 411.161 -39.3314 3.86651 411.161
874 1 -40.8844 3.8271 413.17 -40.8844 3.8271 413.17
10 1 -53.1625 2.5769 402.046 -53.1625 2.5769 402.046
274 1 -54.7082 2.56366 404.044 -54.7082 2.56366 404.044
271 1 -56.2423 2.51969 406.064 -56.2423 2.51969 406.064
24 1 -43.9331 2.62673 400.234 -43.9331 2.62673 400.234
21 1 -45.4731 2.58354 402.205 -45.4731 2.58354 402.205
288 1 -47.0108 2.54396 404.207 -47.0108 2.54396 404.207
285 1 -48.553 2.50225 406.215 -48.553 2.50225 406.215
571 1 -50.0988 2.46341 408.224 -50.0988 2.46341 408.224
568 1 -51.6457 2.42305 410.235 -51.6457 2.42305 410.235
852 1 -53.1949 2.38193 412.247 -53.1949 2.38193 412.247
848 1 -54.7458 2.34014 414.259 -54.7458 2.34014 414.259
306 1 -37.7468 2.55929 402.355 -37.7468 2.55929 402.355
302 1 -39.2993 2.52637 404.358 -39.2993 2.52637 404.358
299 1 -40.8491 2.48996 406.367 -40.8491 2.48996 406.367
583 1 -42.3992 2.45228 408.377 -42.3992 2.45228 408.377
581 1 -43.9497 2.41323 410.387 -43.9497 2.41323 410.387
866 1 -45.5009 2.37308 412.398 -45.5009 2.37308 412.398
880 1 -37.7987 2.36008 412.553 -37.7987 2.36008 412.553
312 1 -33.8944 1.78087 404.137 -33.8944 1.78087 404.137
13 1 -50.8414 3.30143 402.406 -50.8414 3.30143 402.406
278 1 -52.3933 3.27787 404.426 -52.3933 3.27787 404.426
275 1 -53.937 3.244 406.443 -53.937 3.244 406.443
562 1 -55.4819 3.20402 408.459 -55.4819 3.20402 408.459
1166 1 -37.8477 3.69515 419.353 -37.8477 3.69515 419.353
889 1 -32.401 1.61862 412.33 -32.401 1.61862 412.33
28 1 -41.5988 3.33546 400.587 -41.5988 3.33546 400.587
296 1 -43.1511 3.30616 402.584 -43.1511 3.30616 402.584
292 1 -44.6984 3.27157 404.592 -44.6984 3.27157 404.592
289 1 -46.2447 3.23255 406.601 -46.2447 3.23255 406.601
574 1 -47.7919 3.19246 408.611 -47.7919 3.19246 408.611
572 1 -49.3402 3.15184 410.621 -49.3402 3.15184 410.621
856 1 -50.8897 3.11021 412.632 -50.8897 3.11021 412.632
303 1 -38.5381 3.21632 406.756 -38.5381 3.21632 406.756
587 1 -40.0892 3.17859 408.764 -40.0892 3.17859 408.764
584 1 -41.6407 3.13983 410.774 -41.6407 3.13983 410.774
870 1 -43.1929 3.10009 412.783 -43.1929 3.10009 412.783
6 1 -55.4781 1.87378 401.628 -55.4781 1.87378 401.628
890 1 -31.6468 2.30724 414.726 -31.6468 2.30724 414.726
18 1 -47.7723 1.8395 401.805 -47.7723 1.8395 401.805
284 1 -49.3126 1.80444 403.813 -49.3126 1.80444 403.813
281 1 -50.8583 1.77118 405.824 -50.8583 1.77118 405.824
567 1 -52.4037 1.73514 407.836 -52.4037 1.73514 407.836
564 1 -53.9505 1.69543 409.849 -53.9505 1.69543 409.849
561 1 -55.4999 1.65508 411.862 -55.4999 1.65508 411.862
33 1 -38.5232 1.87485 400.002 -38.5232 1.87485 400.002
30 1 -40.0707 1.83564 401.964 -40.0707 1.83564 401.964
298 1 -41.6132 1.80123 403.971 -41.6132 1.80123 403.971
295 1 -43.1608 1.76472 405.982 -43.1608 1.76472 405.982
580 1 -44.7092 1.72622 407.992 -44.7092 1.72622 407.992
577 1 -46.2584 1.68645 410.002 -46.2584 1.68645 410.002
862 1 -47.8084 1.64567 412.012 -47.8084 1.64567 412.012
590 1 -38.555 1.67214 410.157 -38.555 1.67214 410.157
876 1 -40.1078 1.6332 412.165 -40.1078 1.6332 412.165
1163 1 -39.3774 0.773851 417.962 -39.3774 0.773851 417.962
1153 1 -45.5473 3.70355 419.199 -45.5473 3.70355 419.199
311 1 -34.6712 3.97777 405.14 -34.6712 3.97777 405.14
42 1 -33.1077 1.12952 399.785 -33.1077 1.12952 399.785
1135 1 -56.324 0.745505 419.673 -56.324 0.745505 419.673
1171 1 -34.7609 2.22938 418.738 -34.7609 2.22938 418.738
1139 1 -54.0194 1.47432 420.057 -54.0194 1.47432 420.057
601 1 -32.3788 3.16167 408.931 -32.3788 3.16167 408.931
313 1 -33.1134 4.01216 403.134 -33.1134 4.01216 403.134
858 1 -49.3594 1.60388 414.023 -49.3594 1.60388 414.023
868 1 -43.9692 0.866132 413.788 -43.9692 0.866132 413.788
1147 1 -49.3826 0.0546296 417.425 -49.3826 4.48208 417.425
593 1 -36.2448 2.39861 410.546 -36.2448 2.39861 410.546
308 1 -36.2098 1.05607 403.746 -36.2098 1.05607 403.746
861 1 -47.8292 0.097151 415.414 -47.8292 4.5246 415.414
1158 1 -42.4628 2.23901 418.58 -42.4628 2.23901 418.58
884 1 -35.489 3.08685 412.942 -35.489 3.08685 412.942
881 1 -37.0441 3.0478 414.95 -37.0441 3.0478 414.95
885 1 -34.7349 3.77491 415.339 -34.7349 3.77491 415.339
859 1 -48.6058 2.28971 416.419 -48.6058 2.28971 416.419
596 1 -34.691 2.43598 408.539 -34.691 2.43598 408.539
879 1 -37.8217 0.814212 415.954 -37.8217 0.814212 415.954
1172 1 -33.9823 0.0354443 417.735 -33.9823 4.4629 417.735
1154 1 -44.7698 1.51094 418.194 -44.7698 1.51094 418.194
887 1 -33.9569 1.58058 414.335 -33.9569 1.58058 414.335
597 1 -33.9341 3.12487 410.936 -33.9341 3.12487 410.936
1161 1 -40.9075 2.28021 416.57 -40.9075 2.28021 416.57
1138 1 -54.77 0.789702 417.661 -54.77 0.789702 417.661
1149 1 -47.8537 2.97525 418.815 -47.8537 2.97525 418.815
41 1 -33.876 3.32252 400.757 -33.876 3.32252 400.757
888 1 -33.1789 3.81346 413.332 -33.1789 3.81346 413.332
1165 1 -38.5995 3.00786 416.958 -38.5995 3.00786 416.958
1141 1 -52.4651 1.51824 418.046 -52.4651 1.51824 418.046
1145 1 -50.1597 2.24682 418.43 -50.1597 2.24682 418.43
600 1 -33.1364 2.47196 406.535 -33.1364 2.47196 406.535
1148 1 -48.6312 0.740003 419.82 -48.6312 0.740003 419.82
882 1 -37.0217 0.165748 411.549 -37.0217 4.5932 411.549
1157 1 -43.2406 4.43183 419.585 -43.2406 4.43183 419.585
1144 1 -50.9369 0.0113764 419.436 -50.9369 4.43883 419.436
602 1 -31.6008 0.965825 407.928 -31.6008 0.965825 407.928
1755 1 -30.9851 2.78806 427.316 -30.9851 2.78806 427.316
1460 1 -35.5688 2.87678 423.141 -35.5688 2.87678 423.141
2308 1 -44.1696 3.30411 437.591 -44.1696 3.30411 437.591
2316 1 -39.5298 1.88881 434.96 -39.5298 1.88881 434.96
2312 1 -41.8653 4.03552 437.975 -41.8653 4.03552 437.975
1464 1 -33.2609 3.6052 423.529 -33.2609 3.6052 423.529
1461 1 -34.7895 0.683381 422.137 -34.7895 0.683381 422.137
2039 1 -33.3604 3.39382 433.723 -33.3604 3.39382 433.723
2613 1 -34.9533 1.80281 439.131 -34.9533 1.80281 439.131
1467 1 -30.9526 4.33338 423.919 -30.9526 4.33338 423.919
2603 1 -40.3393 2.53084 439.365 -40.3393 2.53084 439.365
1443 1 -44.7967 4.38945 421.595 -44.7967 4.38945 421.595
1748 1 -34.8202 3.56452 425.536 -34.8202 3.56452 425.536
2023 1 -41.8346 1.15771 434.574 -41.8346 1.15771 434.574
2310 1 -42.6432 1.79923 438.981 -42.6432 1.79923 438.981
1151 1 -46.3251 1.46852 420.205 -46.3251 1.46852 420.205
2303 1 -47.252 0.336616 438.212 -47.252 0.336616 438.212
2299 1 -49.5569 4.03324 437.828 -49.5569 4.03324 437.828
2033 1 -36.4457 0.428006 434.341 -36.4457 0.428006 434.341
1433 1 -50.1866 0.696418 421.831 -50.1866 0.696418 421.831
1430 1 -51.7426 0.652202 423.842 -51.7426 0.652202 423.842
1426 1 -53.2992 0.607526 425.853 -53.2992 0.607526 425.853
1713 1 -54.8563 0.56261 427.865 -54.8563 0.56261 427.865
1710 1 -56.4138 0.517685 429.875 -56.4138 0.517685 429.875
2330 1 -31.09 2.57762 437.509 -31.09 2.57762 437.509
1160 1 -40.9336 0.732679 419.971 -40.9336 0.732679 419.971
1447 1 -42.4902 0.690724 421.98 -42.4902 0.690724 421.98
1444 1 -44.0471 0.648012 423.99 -44.0471 0.648012 423.99
1730 1 -45.6043 0.60459 426 -45.6043 0.60459 426
1727 1 -47.1617 0.560542 428.01 -47.1617 0.560542 428.01
1724 1 -48.719 0.516005 430.021 -48.719 0.516005 430.021
2008 1 -50.2762 0.471162 432.032 -50.2762 0.471162 432.032
2006 1 -51.8332 0.426219 434.043 -51.8332 0.426219 434.043
1458 1 -36.3481 0.642528 424.144 -36.3481 0.642528 424.144
1743 1 -37.9068 0.600874 426.152 -37.9068 0.600874 426.152
1740 1 -39.4655 0.558417 428.161 -39.4655 0.558417 428.161
2026 1 -41.0239 0.515182 430.17 -41.0239 0.515182 430.17
2022 1 -42.582 0.471237 432.179 -42.582 0.471237 432.179
2019 1 -44.1394 0.426706 434.19 -44.1394 0.426706 434.19
2309 1 -43.3915 1.11292 436.585 -43.3915 1.11292 436.585
1137 1 -54.7969 3.66584 421.063 -54.7969 3.66584 421.063
1421 1 -56.3526 3.62105 423.075 -56.3526 3.62105 423.075
1439 1 -47.1029 3.66075 421.21 -47.1029 3.66075 421.21
1435 1 -48.659 3.61722 423.221 -48.659 3.61722 423.221
1432 1 -50.2156 3.57307 425.232 -50.2156 3.57307 425.232
1719 1 -51.7724 3.52846 427.243 -51.7724 3.52846 427.243
1716 1 -53.3296 3.48359 429.254 -53.3296 3.48359 429.254
2001 1 -54.8871 3.43868 431.265 -54.8871 3.43868 431.265
1998 1 -56.4446 3.39395 433.275 -56.4446 3.39395 433.275
2323 1 -34.9201 3.35096 435.731 -34.9201 3.35096 435.731
1453 1 -39.4047 3.65404 421.362 -39.4047 3.65404 421.362
1450 1 -40.9621 3.61216 423.371 -40.9621 3.61216 423.371
1446 1 -42.5196 3.56951 425.38 -42.5196 3.56951 425.38
1732 1 -44.0773 3.52614 427.39 -44.0773 3.52614 427.39
1729 1 -45.6349 3.48213 429.4 -45.6349 3.48213 429.4
2014 1 -47.1923 3.4376 431.411 -47.1923 3.4376 431.411
2011 1 -48.7494 3.39274 433.421 -48.7494 3.39274 433.421
1745 1 -36.3796 3.52302 427.543 -36.3796 3.52302 427.543
1742 1 -37.9388 3.48069 429.551 -37.9388 3.48069 429.551
2028 1 -39.4976 3.43754 431.56 -39.4976 3.43754 431.56
2025 1 -41.0558 3.39364 433.569 -41.0558 3.39364 433.569
1427 1 -53.2698 2.15894 422.453 -53.2698 2.15894 422.453
1424 1 -54.8259 2.1142 424.464 -54.8259 2.1142 424.464
1711 1 -56.3828 2.06922 426.475 -56.3828 2.06922 426.475
2322 1 -35.6995 1.11544 436.736 -35.6995 1.11544 436.736
1750 1 -33.2927 2.05923 426.927 -33.2927 2.05923 426.927
1155 1 -44.0186 2.19701 420.59 -44.0186 2.19701 420.59
1441 1 -45.5749 2.15425 422.6 -45.5749 2.15425 422.6
1438 1 -47.1316 2.11078 424.61 -47.1316 2.11078 424.61
1725 1 -48.6885 2.06668 426.621 -48.6885 2.06668 426.621
1722 1 -50.2457 2.02212 428.632 -50.2457 2.02212 428.632
1718 1 -51.8029 1.97728 430.643 -51.8029 1.97728 430.643
2003 1 -53.3602 1.93236 432.654 -53.3602 1.93236 432.654
2000 1 -54.9173 1.88759 434.664 -54.9173 1.88759 434.664
1459 1 -36.3184 2.18918 420.745 -36.3184 2.18918 420.745
1455 1 -37.8762 2.14818 422.753 -37.8762 2.14818 422.753
1452 1 -39.4343 2.1064 424.761 -39.4343 2.1064 424.761
1737 1 -40.9924 2.06383 426.77 -40.9924 2.06383 426.77
1735 1 -42.5505 2.02052 428.78 -42.5505 2.02052 428.78
2020 1 -44.1083 1.97654 430.79 -44.1083 1.97654 430.79
2017 1 -45.6658 1.93202 432.8 -45.6658 1.93202 432.8
2034 1 -36.4124 1.97573 430.942 -36.4124 1.97573 430.942
2031 1 -37.9715 1.93268 432.95 -37.9715 1.93268 432.95
2029 1 -38.7508 4.12457 433.955 -38.7508 4.12457 433.955
1146 1 -49.4088 2.93202 420.826 -49.4088 2.93202 420.826
1431 1 -50.9646 2.88811 422.837 -50.9646 2.88811 422.837
1428 1 -52.5209 2.84364 424.848 -52.5209 2.84364 424.848
1715 1 -54.0777 2.79881 426.859 -54.0777 2.79881 426.859
1712 1 -55.635 2.75386 428.87 -55.635 2.75386 428.87
1747 1 -34.8527 2.01792 428.934 -34.8527 2.01792 428.934
1449 1 -41.7118 2.92552 420.975 -41.7118 2.92552 420.975
1445 1 -43.2686 2.88319 422.985 -43.2686 2.88319 422.985
1442 1 -44.8257 2.84011 424.995 -44.8257 2.84011 424.995
1728 1 -46.383 2.79636 427.005 -46.383 2.79636 427.005
1726 1 -47.9403 2.75205 429.016 -47.9403 2.75205 429.016
2010 1 -49.4976 2.70734 431.027 -49.4976 2.70734 431.027
2007 1 -51.0547 2.66242 433.038 -51.0547 2.66242 433.038
1456 1 -37.1274 2.83553 425.148 -37.1274 2.83553 425.148
1741 1 -38.6862 2.79347 427.156 -38.6862 2.79347 427.156
1738 1 -40.2448 2.75062 429.165 -40.2448 2.75062 429.165
2024 1 -41.803 2.70702 431.174 -41.803 2.70702 431.174
2021 1 -43.3608 2.66276 433.185 -43.3608 2.66276 433.185
2035 1 -35.6661 2.66333 433.336 -35.6661 2.66333 433.336
1754 1 -31.7327 2.09971 424.922 -31.7327 2.09971 424.922
1423 1 -55.5746 1.42977 422.069 -55.5746 1.42977 422.069
1420 1 -57.1308 1.3848 424.08 -57.1308 1.3848 424.08
2044 1 -30.2739 1.93108 433.108 -30.2739 1.93108 433.108
1437 1 -47.8809 1.42534 422.215 -47.8809 1.42534 422.215
1434 1 -49.4372 1.38149 424.226 -49.4372 1.38149 424.226
1721 1 -50.994 1.33708 426.237 -50.994 1.33708 426.237
1717 1 -52.551 1.29231 428.248 -52.551 1.29231 428.248
1714 1 -54.1083 1.2474 430.259 -54.1083 1.2474 430.259
1999 1 -55.6658 1.20256 432.27 -55.6658 1.20256 432.27
1164 1 -38.6262 1.46097 420.358 -38.6262 1.46097 420.358
1451 1 -40.1834 1.41947 422.366 -40.1834 1.41947 422.366
1448 1 -41.7408 1.3772 424.375 -41.7408 1.3772 424.375
1734 1 -43.2985 1.33419 426.385 -43.2985 1.33419 426.385
1731 1 -44.8561 1.29048 428.395 -44.8561 1.29048 428.395
2016 1 -46.4136 1.24619 430.405 -46.4136 1.24619 430.405
2012 1 -47.9709 1.20147 432.416 -47.9709 1.20147 432.416
2009 1 -49.5278 1.15651 434.427 -49.5278 1.15651 434.427
1746 1 -35.5999 1.33015 426.539 -35.5999 1.33015 426.539
1744 1 -37.1592 1.28824 428.547 -37.1592 1.28824 428.547
2030 1 -38.7183 1.24549 430.555 -38.7183 1.24549 430.555
2027 1 -40.2768 1.20195 432.565 -40.2768 1.20195 432.565
2325 1 -34.1404 1.15879 434.727 -34.1404 1.15879 434.727
1749 1 -34.0727 4.25241 427.931 -34.0727 4.25241 427.931
1425 1 -54.0478 4.35035 423.458 -54.0478 4.35035 423.458
1736 1 -41.7715 4.25599 427.775 -41.7715 4.25599 427.775
1142 1 -51.7143 2.20321 420.441 -51.7143 2.20321 420.441
1720 1 -51.0243 4.21345 429.637 -51.0243 4.21345 429.637
2005 1 -52.5815 4.16854 431.648 -52.5815 4.16854 431.648
2002 1 -54.1388 4.12367 433.659 -54.1388 4.12367 433.659
1169 1 -35.5396 4.4231 419.742 -35.5396 4.4231 419.742
1723 1 -49.4671 4.25818 427.626 -49.4671 4.25818 427.626
1440 1 -46.3532 4.34632 423.605 -46.3532 4.34632 423.605
1733 1 -43.3295 4.21234 429.785 -43.3295 4.21234 429.785
2018 1 -44.8871 4.16806 431.795 -44.8871 4.16806 431.795
2015 1 -46.4443 4.12333 433.805 -46.4443 4.12333 433.805
2036 1 -35.6326 4.21066 429.938 -35.6326 4.21066 429.938
2032 1 -37.192 4.16804 431.946 -37.192 4.16804 431.946
2326 1 -33.3949 1.84661 437.122 -33.3949 1.84661 437.122
1752 1 -32.5127 4.2933 425.924 -32.5127 4.2933 425.924
1457 1 -37.0973 4.38251 421.749 -37.0973 4.38251 421.749
2043 1 -31.0193 1.24253 430.714 -31.0193 1.24253 430.714
2286 1 -56.4743 1.84314 436.675 -56.4743 1.84314 436.675
2319 1 -37.2573 1.07121 438.745 -37.2573 1.07121 438.745
1436 1 -47.91 4.30253 425.616 -47.91 4.30253 425.616
1422 1 -55.6043 4.30546 425.47 -55.6043 4.30546 425.47
1173 1 -33.2311 0.72344 420.131 -33.2311 0.72344 420.131
2293 1 -52.6402 1.06672 438.449 -52.6402 1.06672 438.449
2289 1 -54.9462 0.336842 438.064 -54.9462 0.336842 438.064
2295 1 -51.1122 3.98833 439.839 -51.1122 3.98833 439.839
1465 1 -32.4813 1.41151 422.526 -32.4813 1.41151 422.526
2315 1 -39.5612 0.339608 438.36 -39.5612 0.339608 438.36
2331 1 -31.0545 4.12409 434.111 -31.0545 4.12409 434.111
2297 1 -50.3347 1.79702 438.833 -50.3347 1.79702 438.833
2324 1 -34.1743 4.03856 438.126 -34.1743 4.03856 438.126
2306 1 -44.9475 1.06779 438.596 -44.9475 1.06779 438.596
2285 1 -56.5021 0.29277 440.075 -56.5021 0.29277 440.075
1462 1 -34.0406 1.37123 424.532 -34.0406 1.37123 424.532
1751 1 -32.5459 2.74739 429.322 -32.5459 2.74739 429.322
2329 1 -31.8349 1.88938 435.114 -31.8349 1.88938 435.114
2042 1 -31.7998 3.43569 431.717 -31.7998 3.43569 431.717
2041 1 -32.5802 1.20115 432.72 -32.5802 1.20115 432.72
2593 1 -45.725 3.2589 439.602 -45.725 3.2589 439.602
2328 1 -31.8699 0.342397 438.513 -31.8699 0.342397 438.513
2301 1 -48.0296 2.52777 439.217 -48.0296 2.52777 439.217
1466 1 -31.7017 3.64508 421.523 -31.7017 3.64508 421.523
2298 1 -50.3061 3.34774 435.432 -50.3061 3.34774 435.432
2321 1 -36.4786 3.30715 437.74 -36.4786 3.30715 437.74
2313 1 -41.0871 1.84427 436.97 -41.0871 1.84427 436.97
2294 1 -51.8623 3.30281 437.443 -51.8623 3.30281 437.443
2304 1 -46.4742 2.57293 437.206 -46.4742 2.57293 437.206
2300 1 -48.779 1.84205 436.822 -48.779 1.84205 436.822
2290 1 -54.1681 2.57279 437.059 -54.1681 2.57279 437.059
2318 1 -38.0041 0.384176 436.35 -38.0041 0.384176 436.35
2327 1 -32.6151 4.08186 436.118 -32.6151 4.08186 436.118
2004 1 -52.6116 2.6175 435.048 -52.6116 2.6175 435.048
2013 1 -47.2227 1.88712 434.811 -47.2227 1.88712 434.811
2288 1 -55.6958 4.07904 435.67 -55.6958 4.07904 435.67
2037 1 -34.8863 0.470964 432.332 -34.8863 0.470964 432.332
1739 1 -40.2134 4.29894 425.766 -40.2134 4.29894 425.766
1753 1 -31.7655 0.554107 428.319 -31.7655 0.554107 428.319
2307 1 -44.9179 2.618 435.195 -44.9179 2.618 435.195
2314 1 -40.3086 4.08034 435.965 -40.3086 4.08034 435.965
2040 1 -33.3261 0.512993 430.325 -33.3261 0.512993 430.325
2320 1 -37.225 2.61992 435.345 -37.225 2.61992 435.345
2292 1 -53.3899 0.381381 436.054 -53.3899 0.381381 436.054
2311 1 -42.6132 3.3491 435.58 -42.6132 3.3491 435.58
2302 1 -48.001 4.07831 435.816 -48.001 4.07831 435.816
2296 1 -51.0843 1.11153 436.438 -51.0843 1.11153 436.438
1463 1 -34.0103 2.91724 421.134 -34.0103 2.91724 421.134
2287 1 -55.7242 2.52846 439.07 -55.7242 2.52846 439.07
2291 1 -53.418 3.25817 439.454 -53.418 3.25817 439.454
2317 1 -38.7828 2.5757 437.355 -38.7828 2.5757 437.355
2038 1 -34.1063 2.70582 431.329 -34.1063 2.70582 431.329
2305 1 -45.6961 0.381762 436.201 -45.6961 0.381762 436.201
2332 1 -30.3097 0.385092 436.505 -30.3097 0.385092 436.505
1468 1 -30.9222 1.45101 420.521 -30.9222 1.45101 420.521
1454 1 -38.6552 4.34111 423.757 -38.6552 4.34111 423.757
1429 1 -52.492 4.39488 421.447 -52.492 4.39488 421.447
1133 1 -57.1014 2.93686 420.679 -57.1014 2.93686 420.679
1175 1 -32.4521 2.9569 419.128 -32.4521 2.9569 419.128
2616 1 -32.6819 0.985824 442.917 -32.6819 0.985824 442.917
2901 1 -34.2367 0.940528 444.928 -34.2367 0.940528 444.928
2907 1 -31.1573 3.90912 444.308 -31.1573 3.90912 444.308
3194 1 -31.9618 0.122407 448.717 -31.9618 0.122407 448.717
2587 1 -48.807 0.291497 440.223 -48.807 0.291497 440.223
2597 1 -43.4208 3.99033 439.986 -43.4208 3.99033 439.986
2584 1 -50.3611 0.246634 442.234 -50.3611 0.246634 442.234
2581 1 -51.9143 0.202245 444.245 -51.9143 0.202245 444.245
2868 1 -53.4667 0.158534 446.256 -53.4667 0.158534 446.256
2865 1 -55.0184 0.115677 448.266 -55.0184 0.115677 448.266
2601 1 -41.117 0.294509 440.371 -41.117 0.294509 440.371
2598 1 -42.6712 0.249146 442.383 -42.6712 0.249146 442.383
2885 1 -44.2239 0.203809 444.395 -44.2239 0.203809 444.395
2882 1 -45.7752 0.15879 446.407 -45.7752 0.15879 446.407
2879 1 -47.3251 0.11437 448.419 -47.3251 0.11437 448.419
2612 1 -34.9847 0.253809 442.532 -34.9847 0.253809 442.532
2898 1 -36.5389 0.20838 444.543 -36.5389 0.20838 444.543
2895 1 -38.0907 0.162657 446.556 -38.0907 0.162657 446.556
3180 1 -39.6404 0.117032 448.569 -39.6404 0.117032 448.569
2576 1 -54.9731 3.214 441.465 -54.9731 3.214 441.465
2574 1 -56.5276 3.17045 443.475 -56.5276 3.17045 443.475
2589 1 -47.2793 3.21369 441.613 -47.2793 3.21369 441.613
2586 1 -48.8325 3.16874 443.625 -48.8325 3.16874 443.625
2874 1 -50.3846 3.12429 445.636 -50.3846 3.12429 445.636
2871 1 -51.9359 3.08054 447.647 -51.9359 3.08054 447.647
3155 1 -53.4863 3.03768 449.658 -53.4863 3.03768 449.658
2607 1 -38.0355 3.26254 439.75 -38.0355 3.26254 439.75
2604 1 -39.5908 3.21736 441.762 -39.5908 3.21736 441.762
2600 1 -41.1444 3.1719 443.774 -41.1444 3.1719 443.774
2887 1 -42.6962 3.12649 445.786 -42.6962 3.12649 445.786
2884 1 -44.2463 3.08145 447.799 -44.2463 3.08145 447.799
3168 1 -45.795 3.03709 449.812 -45.795 3.03709 449.812
2900 1 -35.0131 3.1314 445.934 -35.0131 3.1314 445.934
2897 1 -36.564 3.08552 447.947 -36.564 3.08552 447.947
2582 1 -51.8896 1.75227 440.844 -51.8896 1.75227 440.844
2579 1 -53.4437 1.70798 442.855 -53.4437 1.70798 442.855
2866 1 -54.9973 1.66435 444.866 -54.9973 1.66435 444.866
2578 1 -54.1956 1.02229 440.46 -54.1956 1.02229 440.46
2595 1 -44.1981 1.75394 440.992 -44.1981 1.75394 440.992
2592 1 -45.7516 1.70867 443.004 -45.7516 1.70867 443.004
2880 1 -47.3039 1.66367 445.016 -47.3039 1.66367 445.016
2877 1 -48.8549 1.6192 447.028 -48.8549 1.6192 447.028
2873 1 -50.4049 1.5755 449.039 -50.4049 1.5755 449.039
2609 1 -36.51 1.75813 441.141 -36.51 1.75813 441.141
2606 1 -38.0648 1.71284 443.152 -38.0648 1.71284 443.152
2892 1 -39.6175 1.66726 445.165 -39.6175 1.66726 445.165
2890 1 -41.1683 1.62175 447.177 -41.1683 1.62175 447.177
3174 1 -42.7173 1.57666 449.191 -42.7173 1.57666 449.191
2618 1 -31.9036 3.22189 441.912 -31.9036 3.22189 441.912
2585 1 -49.5841 2.48275 441.229 -49.5841 2.48275 441.229
2583 1 -51.1378 2.43809 443.24 -51.1378 2.43809 443.24
2870 1 -52.6906 2.39402 445.251 -52.6906 2.39402 445.251
2867 1 -54.2426 2.35071 447.261 -54.2426 2.35071 447.261
2863 1 -55.7941 2.30834 449.271 -55.7941 2.30834 449.271
2599 1 -41.8943 2.48557 441.377 -41.8943 2.48557 441.377
2596 1 -43.4477 2.44018 443.389 -43.4477 2.44018 443.389
2883 1 -44.9997 2.39497 445.401 -44.9997 2.39497 445.401
2881 1 -46.5503 2.35022 447.413 -46.5503 2.35022 447.413
3164 1 -48.0996 2.30619 449.425 -48.0996 2.30619 449.425
2610 1 -35.7621 2.44488 443.537 -35.7621 2.44488 443.537
2896 1 -37.3151 2.39926 445.549 -37.3151 2.39926 445.549
2893 1 -38.8659 2.35354 447.562 -38.8659 2.35354 447.562
3178 1 -40.4145 2.3081 449.576 -40.4145 2.3081 449.576
2575 1 -55.7504 0.97841 442.47 -55.7504 0.97841 442.47
2591 1 -46.5023 1.02255 440.608 -46.5023 1.02255 440.608
2588 1 -48.056 0.977443 442.619 -48.056 0.977443 442.619
2876 1 -49.6087 0.932713 444.631 -49.6087 0.932713 444.631
2872 1 -51.1604 0.888585 446.642 -51.1604 0.888585 446.642
2869 1 -52.7112 0.845261 448.653 -52.7112 0.845261 448.653
2605 1 -38.8134 1.02628 440.756 -38.8134 1.02628 440.756
2602 1 -40.3678 0.98092 442.767 -40.3678 0.98092 442.767
2889 1 -41.9205 0.935442 444.78 -41.9205 0.935442 444.78
2886 1 -43.4714 0.890175 446.792 -43.4714 0.890175 446.792
3170 1 -45.0208 0.845438 448.805 -45.0208 0.845438 448.805
2899 1 -35.7888 0.894739 446.941 -35.7888 0.894739 446.941
3184 1 -37.3385 0.848891 448.954 -37.3385 0.848891 448.954
2580 1 -52.6667 3.94378 441.85 -52.6667 3.94378 441.85
2577 1 -54.2206 3.8998 443.86 -54.2206 3.8998 443.86
2864 1 -55.7738 3.85656 445.871 -55.7738 3.85656 445.871
2862 1 -56.5502 1.62153 446.876 -56.5502 1.62153 446.876
2594 1 -44.975 3.94501 441.998 -44.975 3.94501 441.998
2590 1 -46.5279 3.89984 444.01 -46.5279 3.89984 444.01
2878 1 -48.0795 3.85508 446.022 -48.0795 3.85508 446.022
2875 1 -49.63 3.81097 448.033 -49.63 3.81097 448.033
3159 1 -51.1796 3.76772 450.045 -51.1796 3.76772 450.045
2611 1 -35.7319 3.99429 440.136 -35.7319 3.99429 440.136
2608 1 -37.2876 3.94927 442.146 -37.2876 3.94927 442.146
2894 1 -38.8414 3.90379 444.158 -38.8414 3.90379 444.158
2891 1 -40.3932 3.8582 446.171 -40.3932 3.8582 446.171
2888 1 -41.943 3.81285 448.184 -41.943 3.81285 448.184
2904 1 -32.7114 3.86362 446.319 -32.7114 3.86362 446.319
2621 1 -30.3452 3.26575 439.903 -30.3452 3.26575 439.903
2617 1 -32.6493 2.53435 439.517 -32.6493 2.53435 439.517
2614 1 -34.2068 2.49002 441.526 -34.2068 2.49002 441.526
2908 1 -30.4101 0.168479 446.705 -30.4101 0.168479 446.705
2619 1 -31.1247 1.03024 440.908 -31.1247 1.03024 440.908
2906 1 -31.1864 2.35923 447.711 -31.1864 2.35923 447.711
2905 1 -31.9347 1.67274 445.313 -31.9347 1.67274 445.313
2620 1 -30.3792 1.71781 443.303 -30.3792 1.71781 443.303
3190 1 -34.2626 3.81764 448.332 -34.2626 3.81764 448.332
2902 1 -33.4874 1.62693 447.326 -33.4874 1.62693 447.326
2903 1 -33.4596 3.17699 443.922 -33.4596 3.17699 443.922
2615 1 -33.4283 0.298579 440.521 -33.4283 0.298579 440.521
2909 1 -29.633 2.40499 445.699 -29.633 2.40499 445.699
14 1 -50.91 0.447893 399.137 -50.91 4.87535 399.137
7 1 -55.3857 3.39997 398.485 -55.3857 3.39997 398.485
25 1 -43.1581 0.447426 399.216 -43.1581 4.87488 399.216
38 1 -35.3921 0.372974 399.32 -35.3921 4.80043 399.32
23 1 -44.6984 0.392577 401.213 -44.6984 4.82003 401.213
287 1 -47.7818 0.308283 405.209 -47.7818 4.73574 405.209
878 1 -38.5757 0.126712 413.557 -38.5757 4.55416 413.557
579 1 -44.7252 0.179581 411.393 -44.7252 4.60703 411.393
585 1 -41.6239 0.257673 407.373 -41.6239 4.68513 407.373
290 1 -46.2414 0.349818 403.205 -46.2414 4.77727 403.205
11 1 -52.3967 0.384965 401.085 -52.3967 4.81242 401.085
595 1 -35.4679 0.203747 409.542 -35.4679 4.6312 409.542
1134 1 -57.0744 0.0614694 417.277 -57.0744 4.48892 417.277
283 1 -49.3259 0.268879 407.218 -49.3259 4.69633 407.218
582 1 -43.1743 0.21921 409.382 -43.1743 4.64666 409.382
276 1 -53.9442 0.364283 403.054 -53.9442 4.79174 403.054
569 1 -50.872 0.229599 409.228 -50.872 4.65705 409.228
847 1 -55.5218 0.105077 415.265 -55.5218 4.53253 415.265
272 1 -55.4748 0.327558 405.058 -55.4748 4.75501 405.058
35 1 -36.9611 0.358986 401.337 -36.9611 4.78644 401.337
598 1 -33.9136 0.240464 407.537 -33.9136 4.66792 407.537
850 1 -53.9702 0.14743 413.253 -53.9702 4.57488 413.253
304 1 -38.5206 0.331032 403.353 -38.5206 4.75849 403.353
301 1 -40.0733 0.295017 405.363 -40.0733 4.72247 405.363
314 1 -32.3582 0.275841 405.533 -32.3582 4.70329 405.533
864 1 -46.2768 0.138873 413.403 -46.2768 4.56633 413.403
566 1 -52.42 0.188775 411.241 -52.42 4.61623 411.241
1176 1 -32.4253 0.0743886 415.729 -32.4253 4.50184 415.729
85 1 -6.83618 1.16266 396.444 -6.83618 1.16266 396.444
58 1 -23.787 1.10372 397.976 -23.787 1.10372 397.976
45 1 -31.5803 1.17928 397.865 -31.5803 1.17928 397.865
49 1 -29.2006 1.85074 398.187 -29.2006 1.85074 398.187
72 1 -15.345 3.36636 397.236 -15.345 3.36636 397.236
80 1 -9.90108 2.58773 397.01 -9.90108 2.58773 397.01
75 1 -12.9678 4.03911 397.562 -12.9678 4.03911 397.562
83 1 -7.58661 3.36313 397.347 -7.58661 3.36313 397.347
52 1 -26.9012 2.63432 398.56 -26.9012 2.63432 398.56
61 1 -21.4883 1.88748 398.351 -21.4883 1.88748 398.351