ITEM: TIMESTEP
0
ITEM: NUMBER OF ATOMS
4630
ITEM: BOX BOUNDS xy xz yz pp pp pp
-6.2740988501799997e+01 1.0576002035000000e+02 0.0000000000000000e+00
0.0000000000000000e+00 4.4274527100805940e+00 0.0000000000000000e+00
3.8000000000000000e+02 5.0000000000000000e+02 0.0000000000000000e+00
ITEM: ATOMS id type x y z xu yu zu
27 1 -45.1741 2.23949 399.351 -45.1741 2.23949 399.351
36 1 -39.6048 1.49694 399.407 -39.6048 1.49694 399.407
31 1 -42.7892 2.93034 399.79 -42.7892 2.93034 399.79
22 1 -48.3491 3.68179 399.761 -48.3491 3.68179 399.761
20 1 -49.2108 1.46111 400.614 -49.2108 1.46111 400.614
40 1 -37.2224 2.18944 399.85 -37.2224 2.18944 399.85
34 1 -40.4446 3.69564 400.25 -40.4446 3.69564 400.25
17 1 -51.5596 0.708512 400.162 -51.5596 0.708512 400.162
9 1 -57.0897 1.39609 400.076 -57.0897 1.39609 400.076
43 1 -34.8792 2.95551 400.311 -34.8792 2.95551 400.311
12 1 -54.7746 2.21402 400.564 -54.7746 2.21402 400.564
5 1 -59.4662 0.732794 399.616 -59.4662 0.732794 399.616
29 1 -43.6443 0.701854 400.65 -43.6443 0.701854 400.65
853 1 -56.5095 2.80444 414.817 -56.5095 2.80444 414.817
873 1 -45.3881 1.32789 414.938 -45.3881 1.32789 414.938
865 1 -49.4547 0.577632 416.323 -49.4547 0.577632 416.323
1174 1 -36.837 2.037 417.89 -36.837 2.037 417.89
883 1 -39.8262 0.588358 414.998 -39.8262 0.588358 414.998
863 1 -50.95 2.06708 414.877 -50.95 2.06708 414.877
315 1 -35.1002 1.42942 403.618 -35.1002 1.42942 403.618
307 1 -40.0248 2.88622 405.946 -40.0248 2.88622 405.946
1150 1 -51.1681 0.559619 418.21 -51.1681 0.559619 418.21
855 1 -55.0146 1.31527 416.263 -55.0146 1.31527 416.263
310 1 -38.3097 2.90403 404.063 -38.3097 2.90403 404.063
871 1 -46.2454 3.53302 415.881 -46.2454 3.53302 415.881
16 1 -52.4111 2.90738 401.024 -52.4111 2.90738 401.024
309 1 -38.5288 1.39664 407.389 -38.5288 1.39664 407.389
1156 1 -47.9596 3.51554 417.768 -47.9596 3.51554 417.768
867 1 -48.5978 2.80017 415.379 -48.5978 2.80017 415.379
1159 1 -45.6076 4.2485 418.27 -45.6076 4.2485 418.27
1168 1 -40.0463 3.50921 418.331 -40.0463 3.50921 418.331
1170 1 -39.189 1.30408 417.387 -39.189 1.30408 417.387
594 1 -39.3863 3.60185 408.334 -39.3863 3.60185 408.334
37 1 -38.946 2.18659 401.696 -38.946 2.18659 401.696
851 1 -57.3658 0.581519 415.761 -57.3658 0.581519 415.761
857 1 -54.1582 3.5382 415.319 -54.1582 3.5382 415.319
592 1 -40.2436 1.37954 409.277 -40.2436 1.37954 409.277
849 1 -58.2221 2.78607 416.705 -58.2221 2.78607 416.705
877 1 -43.0358 2.06067 415.44 -43.0358 2.06067 415.44
1143 1 -55.871 3.5198 417.207 -55.871 3.5198 417.207
1140 1 -57.5837 3.5014 419.095 -57.5837 3.5014 419.095
845 1 -60.5733 2.05248 416.204 -60.5733 2.05248 416.204
875 1 -43.8931 4.26581 416.383 -43.8931 4.26581 416.383
886 1 -38.1114 0.605541 413.112 -38.1114 0.605541 413.112
891 1 -34.9019 3.56065 412.671 -34.9019 3.56065 412.671
39 1 -37.4565 0.693319 403.109 -37.4565 0.693319 403.109
1177 1 -35.3425 0.547662 419.336 -35.3425 0.547662 419.336
1167 1 -40.9036 1.28687 419.274 -40.9036 1.28687 419.274
8 1 -57.9617 3.65368 401.04 -57.9617 3.65368 401.04
869 1 -47.1026 1.31061 416.825 -47.1026 1.31061 416.825
1136 1 -59.9349 2.76775 418.594 -59.9349 2.76775 418.594
1162 1 -44.1127 2.75898 419.716 -44.1127 2.75898 419.716
15 1 -53.2741 0.70297 402.013 -53.2741 0.70297 402.013
280 1 -54.991 0.685122 403.882 -54.991 0.685122 403.882
277 1 -56.7148 0.679167 405.759 -56.7148 0.679167 405.759
273 1 -58.4271 0.660912 407.645 -58.4271 0.660912 407.645
560 1 -60.1379 0.640951 409.535 -60.1379 0.640951 409.535
557 1 -61.8501 0.622145 411.424 -61.8501 0.622145 411.424
26 1 -45.3636 0.705863 402.545 -45.3636 0.705863 402.545
294 1 -47.0818 0.690851 404.441 -47.0818 0.690851 404.441
291 1 -48.7966 0.669737 406.327 -48.7966 0.669737 406.327
576 1 -50.5111 0.651183 408.213 -50.5111 0.651183 408.213
573 1 -52.2266 0.635073 410.098 -52.2266 0.635073 410.098
570 1 -53.9405 0.618067 411.984 -53.9405 0.618067 411.984
854 1 -55.6532 0.599901 413.872 -55.6532 0.599901 413.872
305 1 -40.8812 0.664216 406.888 -40.8812 0.664216 406.888
589 1 -42.596 0.646867 408.776 -42.596 0.646867 408.776
586 1 -44.3108 0.629466 410.662 -44.3108 0.629466 410.662
872 1 -46.0257 0.612249 412.549 -46.0257 0.612249 412.549
599 1 -36.3965 0.622716 411.225 -36.3965 0.622716 411.225
1132 1 -62.2861 2.03422 418.093 -62.2861 2.03422 418.093
4 1 -59.7167 3.67184 402.852 -59.7167 3.67184 402.852
268 1 -61.4157 3.63942 404.749 -61.4157 3.63942 404.749
1152 1 -50.3115 2.7824 417.266 -50.3115 2.7824 417.266
19 1 -50.0787 3.65011 401.552 -50.0787 3.65011 401.552
286 1 -51.7841 3.63498 403.423 -51.7841 3.63498 403.423
282 1 -53.4972 3.62372 405.318 -53.4972 3.62372 405.318
279 1 -55.217 3.6133 407.203 -55.217 3.6133 407.203
565 1 -56.931 3.59736 409.091 -56.931 3.59736 409.091
563 1 -58.6428 3.57869 410.98 -58.6428 3.57869 410.98
846 1 -60.3553 3.56016 412.87 -60.3553 3.56016 412.87
32 1 -42.1559 3.65754 402.127 -42.1559 3.65754 402.127
300 1 -43.8728 3.64424 404.005 -43.8728 3.64424 404.005
297 1 -45.5877 3.62668 405.887 -45.5877 3.62668 405.887
293 1 -47.3015 3.60867 407.773 -47.3015 3.60867 407.773
578 1 -49.0161 3.59078 409.659 -49.0161 3.59078 409.659
575 1 -50.7313 3.57382 411.545 -50.7313 3.57382 411.545
860 1 -52.4453 3.55639 413.431 -52.4453 3.55639 413.431
591 1 -41.1011 3.58458 410.22 -41.1011 3.58458 410.22
588 1 -42.8158 3.56733 412.107 -42.8158 3.56733 412.107
874 1 -44.5307 3.55017 413.994 -44.5307 3.55017 413.994
10 1 -56.4824 2.1626 402.444 -56.4824 2.1626 402.444
274 1 -58.2155 2.17327 404.307 -58.2155 2.17327 404.307
271 1 -59.9226 2.15122 406.197 -59.9226 2.15122 406.197
558 1 -61.6324 2.13011 408.089 -61.6324 2.13011 408.089
24 1 -46.8792 2.19252 401.138 -46.8792 2.19252 401.138
21 1 -48.5847 2.17758 402.996 -48.5847 2.17758 402.996
288 1 -50.2909 2.15676 404.883 -50.2909 2.15676 404.883
285 1 -52.005 2.1383 406.769 -52.005 2.1383 406.769
571 1 -53.7219 2.12386 408.652 -53.7219 2.12386 408.652
568 1 -55.4358 2.10743 410.538 -55.4358 2.10743 410.538
852 1 -57.1481 2.08917 412.426 -57.1481 2.08917 412.426
848 1 -58.8605 2.07078 414.315 -58.8605 2.07078 414.315
306 1 -40.6639 2.16962 403.557 -40.6639 2.16962 403.557
302 1 -42.3773 2.15323 405.441 -42.3773 2.15323 405.441
299 1 -44.0914 2.1365 407.33 -44.0914 2.1365 407.33
583 1 -45.8059 2.11908 409.217 -45.8059 2.11908 409.217
581 1 -47.5209 2.10166 411.104 -47.5209 2.10166 411.104
866 1 -49.2359 2.08458 412.99 -49.2359 2.08458 412.99
880 1 -41.321 2.07783 413.553 -41.321 2.07783 413.553
312 1 -36.8144 1.41334 405.502 -36.8144 1.41334 405.502
2 1 -61.2256 0.745039 401.416 -61.2256 0.745039 401.416
13 1 -54.1251 2.90451 402.924 -54.1251 2.90451 402.924
278 1 -55.8518 2.89585 404.815 -55.8518 2.89585 404.815
275 1 -57.5712 2.88449 406.698 -57.5712 2.88449 406.698
562 1 -59.2819 2.86447 408.589 -59.2819 2.86447 408.589
559 1 -60.9938 2.84516 410.479 -60.9938 2.84516 410.479
1166 1 -41.7608 3.49195 420.218 -41.7608 3.49195 420.218
889 1 -35.7593 1.33838 413.614 -35.7593 1.33838 413.614
28 1 -44.5102 2.92753 401.638 -44.5102 2.92753 401.638
296 1 -46.228 2.91146 403.5 -46.228 2.91146 403.5
292 1 -47.9402 2.89405 405.384 -47.9402 2.89405 405.384
289 1 -49.6533 2.87419 407.271 -49.6533 2.87419 407.271
574 1 -51.3688 2.85699 409.156 -51.3688 2.85699 409.156
572 1 -53.0838 2.84057 411.041 -53.0838 2.84057 411.041
856 1 -54.7969 2.82281 412.928 -54.7969 2.82281 412.928
303 1 -41.7391 2.869 407.832 -41.7391 2.869 407.832
587 1 -43.4535 2.85181 409.719 -43.4535 2.85181 409.719
584 1 -45.1683 2.83454 411.606 -45.1683 2.83454 411.606
870 1 -46.8832 2.81742 413.492 -46.8832 2.81742 413.492
6 1 -58.8487 1.45949 401.918 -58.8487 1.45949 401.918
270 1 -60.5643 1.44038 403.798 -60.5643 1.44038 403.798
267 1 -62.2697 1.41476 405.696 -62.2697 1.41476 405.696
890 1 -35.1222 2.05412 416.003 -35.1222 2.05412 416.003
18 1 -50.9231 1.43085 402.499 -50.9231 1.43085 402.499
284 1 -52.6379 1.41801 404.382 -52.6379 1.41801 404.382
281 1 -54.358 1.40552 406.264 -54.358 1.40552 406.264
567 1 -56.0749 1.39256 408.148 -56.0749 1.39256 408.148
564 1 -57.787 1.37438 410.036 -57.787 1.37438 410.036
561 1 -59.499 1.35567 411.925 -59.499 1.35567 411.925
844 1 -61.2117 1.33727 413.814 -61.2117 1.33727 413.814
33 1 -41.316 1.45122 401.19 -41.316 1.45122 401.19
30 1 -43.0204 1.43347 403.05 -43.0204 1.43347 403.05
298 1 -44.7304 1.42132 404.94 -44.7304 1.42132 404.94
295 1 -46.4443 1.40415 406.829 -46.4443 1.40415 406.829
580 1 -48.1587 1.38572 408.716 -48.1587 1.38572 408.716
577 1 -49.8738 1.36844 410.602 -49.8738 1.36844 410.602
862 1 -51.5885 1.35146 412.487 -51.5885 1.35146 412.487
590 1 -41.9584 1.36226 411.164 -41.9584 1.36226 411.164
876 1 -43.6732 1.34502 413.051 -43.6732 1.34502 413.051
1163 1 -43.2555 0.553952 418.772 -43.2555 0.553952 418.772
1153 1 -49.6731 3.49763 419.656 -49.6731 3.49763 419.656
311 1 -37.6708 3.61934 406.447 -37.6708 3.61934 406.447
42 1 -35.7508 0.710857 401.251 -35.7508 0.710857 401.251
1135 1 -60.7913 0.544863 419.538 -60.7913 0.544863 419.538
1171 1 -38.5517 2.01983 419.777 -38.5517 2.01983 419.777
1139 1 -58.4401 1.27848 420.04 -58.4401 1.27848 420.04
601 1 -35.5391 2.84496 410.281 -35.5391 2.84496 410.281
313 1 -35.9536 3.63711 404.56 -35.9536 3.63711 404.56
858 1 -53.3018 1.33362 414.375 -53.3018 1.33362 414.375
868 1 -47.7406 0.59513 414.436 -47.7406 0.59513 414.436
1147 1 -53.5197 4.25352 417.708 -53.5197 4.25352 417.708
843 1 -62.0681 3.54186 414.759 -62.0681 3.54186 414.759
593 1 -39.6062 2.09504 411.666 -39.6062 2.09504 411.666
308 1 -39.1668 0.68101 404.999 -39.1668 0.68101 404.999
861 1 -51.8067 4.27181 415.821 -51.8067 4.27181 415.821
1158 1 -46.4646 2.026 419.214 -46.4646 2.026 419.214
884 1 -38.9688 2.81067 414.055 -38.9688 2.81067 414.055
881 1 -40.6836 2.7935 415.942 -40.6836 2.7935 415.942
885 1 -38.3316 3.52639 416.444 -38.3316 3.52639 416.444
859 1 -52.6632 2.04897 416.764 -52.6632 2.04897 416.764
596 1 -37.8914 2.11221 409.779 -37.8914 2.11221 409.779
879 1 -41.541 0.57119 416.885 -41.541 0.57119 416.885
1172 1 -37.6944 4.24215 418.833 -37.6944 4.24215 418.833
1154 1 -48.8164 1.29291 418.712 -48.8164 1.29291 418.712
887 1 -37.4742 1.32124 415.501 -37.4742 1.32124 415.501
597 1 -37.254 2.82784 412.168 -37.254 2.82784 412.168
1161 1 -44.7504 2.04346 417.327 -44.7504 2.04346 417.327
1138 1 -59.0785 0.563177 417.65 -59.0785 0.563177 417.65
1149 1 -52.0247 2.76422 419.154 -52.0247 2.76422 419.154
41 1 -36.5916 2.91704 402.188 -36.5916 2.91704 402.188
888 1 -36.6168 3.54353 414.557 -36.6168 3.54353 414.557
1165 1 -42.3983 2.77632 417.829 -42.3983 2.77632 417.829
1141 1 -56.7273 1.29687 418.151 -56.7273 1.29687 418.151
1145 1 -54.3761 2.0306 418.653 -54.3761 2.0306 418.653
600 1 -36.1767 2.12924 407.892 -36.1767 2.12924 407.892
1148 1 -52.8812 0.541322 420.098 -52.8812 0.541322 420.098
882 1 -40.4636 4.30015 412.609 -40.4636 4.30015 412.609
1157 1 -47.3214 4.23085 420.157 -47.3214 4.23085 420.157
1144 1 -55.2325 4.23511 419.597 -55.2325 4.23511 419.597
602 1 -34.6814 0.639827 409.338 -34.6814 0.639827 409.338
1131 1 -62.5041 0.526544 421.427 -62.5041 0.526544 421.427
1755 1 -35.1456 2.67794 428.391 -35.1456 2.67794 428.391
1460 1 -39.6287 2.71821 424.053 -39.6287 2.71821 424.053
2308 1 -49.2682 3.32531 437.771 -49.2682 3.32531 437.771
2316 1 -44.3492 1.87276 435.44 -44.3492 1.87276 435.44
2312 1 -46.9175 4.05905 438.272 -46.9175 4.05905 438.272
1464 1 -37.2771 3.45136 424.555 -37.2771 3.45136 424.555
1461 1 -38.7716 0.513201 423.109 -38.7716 0.513201 423.109
2039 1 -37.935 3.35814 434.555 -37.935 3.35814 434.555
2613 1 -39.8659 1.83275 439.777 -39.8659 1.83275 439.777
1467 1 -34.9257 4.18452 425.058 -34.9257 4.18452 425.058
2603 1 -45.4229 2.56989 439.718 -45.4229 2.56989 439.718
1443 1 -49.0348 4.21285 422.045 -49.0348 4.21285 422.045
1748 1 -38.9912 3.43387 426.442 -38.9912 3.43387 426.442
2023 1 -46.6999 1.1391 434.938 -46.6999 1.1391 434.938
2310 1 -47.7735 1.83615 439.217 -47.7735 1.83615 439.217
1151 1 -50.5297 1.27483 420.6 -50.5297 1.27483 420.6
2303 1 -52.475 0.368625 438.214 -52.475 0.368625 438.214
2299 1 -54.8258 4.06228 437.713 -54.8258 4.06228 437.713
2033 1 -41.1422 0.401775 434.997 -41.1422 0.401775 434.997
1433 1 -54.5941 0.522927 421.986 -54.5941 0.522927 421.986
1430 1 -56.3068 0.504496 423.875 -56.3068 0.504496 423.875
1426 1 -58.0195 0.486042 425.763 -58.0195 0.486042 425.763
1713 1 -59.732 0.467572 427.652 -59.732 0.467572 427.652
1710 1 -61.4445 0.44909 429.541 -61.4445 0.44909 429.541
2330 1 -35.803 2.58464 438.391 -35.803 2.58464 438.391
1160 1 -44.9697 0.536481 420.659 -44.9697 0.536481 420.659
1447 1 -46.6833 0.518697 422.547 -46.6833 0.518697 422.547
1444 1 -48.3966 0.500649 424.435 -48.3966 0.500649 424.435
1730 1 -50.1096 0.482423 426.323 -50.1096 0.482423 426.323
1727 1 -51.8224 0.464084 428.211 -51.8224 0.464084 428.211
1724 1 -53.535 0.44567 430.1 -53.535 0.44567 430.1
2008 1 -55.2474 0.427209 431.988 -55.2474 0.427209 431.988
2006 1 -56.9596 0.408721 433.877 -56.9596 0.408721 433.877
1458 1 -40.4857 0.495715 424.996 -40.4857 0.495715 424.996
1743 1 -42.1993 0.478001 426.884 -42.1993 0.478001 426.884
1740 1 -43.9126 0.460071 428.772 -43.9126 0.460071 428.772
2026 1 -45.6256 0.441967 430.66 -45.6256 0.441967 430.66
2022 1 -47.3383 0.423733 432.548 -47.3383 0.423733 432.548
2019 1 -49.0507 0.405411 434.437 -49.0507 0.405411 434.437
2309 1 -48.4122 1.12077 436.827 -48.4122 1.12077 436.827
1137 1 -59.2965 3.48302 420.984 -59.2965 3.48302 420.984
1421 1 -61.0092 3.46464 422.873 -61.0092 3.46464 422.873
1439 1 -51.3863 3.47943 421.544 -51.3863 3.47943 421.544
1435 1 -53.0992 3.46108 423.432 -53.0992 3.46108 423.432
1432 1 -54.812 3.44267 425.32 -54.812 3.44267 425.32
1719 1 -56.5246 3.42422 427.209 -56.5246 3.42422 427.209
1716 1 -58.2371 3.40573 429.098 -58.2371 3.40573 429.098
2001 1 -59.9495 3.38724 430.986 -59.9495 3.38724 430.986
1998 1 -61.6618 3.36874 432.875 -61.6618 3.36874 432.875
2323 1 -39.6478 3.34007 436.443 -39.6478 3.34007 436.443
1453 1 -43.4749 3.47447 422.105 -43.4749 3.47447 422.105
1450 1 -45.1886 3.45672 423.993 -45.1886 3.45672 423.993
1446 1 -46.9019 3.43872 425.88 -46.9019 3.43872 425.88
1732 1 -48.6149 3.42055 427.769 -48.6149 3.42055 427.769
1729 1 -50.3276 3.40225 429.657 -50.3276 3.40225 429.657
2014 1 -52.0402 3.38387 431.545 -52.0402 3.38387 431.545
2011 1 -53.7525 3.36543 433.434 -53.7525 3.36543 433.434
1745 1 -40.7048 3.41617 428.33 -40.7048 3.41617 428.33
1742 1 -42.4181 3.39826 430.218 -42.4181 3.39826 430.218
2028 1 -44.131 3.38017 432.106 -44.131 3.38017 432.106
2025 1 -45.8437 3.36196 433.994 -45.8437 3.36196 433.994
1427 1 -57.8017 1.99376 422.429 -57.8017 1.99376 422.429
1424 1 -59.5143 1.97533 424.318 -59.5143 1.97533 424.318
1711 1 -61.2269 1.95689 426.207 -61.2269 1.95689 426.207
2322 1 -40.5041 1.11726 437.387 -40.5041 1.11726 437.387
1750 1 -37.4968 1.94463 427.888 -37.4968 1.94463 427.888
1155 1 -48.1782 2.00816 421.101 -48.1782 2.00816 421.101
1441 1 -49.8914 1.99004 422.989 -49.8914 1.99004 422.989
1438 1 -51.6044 1.97176 424.877 -51.6044 1.97176 424.877
1725 1 -53.3172 1.95338 426.766 -53.3172 1.95338 426.766
1722 1 -55.0298 1.93494 428.654 -55.0298 1.93494 428.654
1718 1 -56.7422 1.91646 430.543 -56.7422 1.91646 430.543
2003 1 -58.4546 1.89796 432.432 -58.4546 1.89796 432.432
2000 1 -60.1668 1.87946 434.32 -60.1668 1.87946 434.32
1459 1 -40.2661 2.00255 421.663 -40.2661 2.00255 421.663
1455 1 -41.9802 1.98506 423.551 -41.9802 1.98506 423.551
1452 1 -43.6939 1.96734 425.438 -43.6939 1.96734 425.438
1737 1 -45.4072 1.94938 427.326 -45.4072 1.94938 427.326
1735 1 -47.1202 1.93124 429.214 -47.1202 1.93124 429.214
2020 1 -48.8329 1.91298 431.103 -48.8329 1.91298 431.103
2017 1 -50.5454 1.89463 432.991 -50.5454 1.89463 432.991
2034 1 -40.9237 1.90903 431.663 -40.9237 1.90903 431.663
2031 1 -42.6366 1.89096 433.551 -42.6366 1.89096 433.551
2029 1 -43.4929 4.0956 434.496 -43.4929 4.0956 434.496
1146 1 -53.7376 2.74586 421.042 -53.7376 2.74586 421.042
1431 1 -55.4505 2.72744 422.931 -55.4505 2.72744 422.931
1428 1 -57.1632 2.709 424.819 -57.1632 2.709 424.819
1715 1 -58.8758 2.69054 426.708 -58.8758 2.69054 426.708
1712 1 -60.5883 2.67206 428.596 -60.5883 2.67206 428.596
1708 1 -62.3007 2.65358 430.485 -62.3007 2.65358 430.485
1747 1 -39.2104 1.92693 429.776 -39.2104 1.92693 429.776
1449 1 -45.8265 2.74135 421.603 -45.8265 2.74135 421.603
1445 1 -47.54 2.72343 423.491 -47.54 2.72343 423.491
1442 1 -49.2531 2.70528 425.379 -49.2531 2.70528 425.379
1728 1 -50.966 2.68699 427.267 -50.966 2.68699 427.267
1726 1 -52.6787 2.66861 429.156 -52.6787 2.66861 429.156
2010 1 -54.3912 2.65017 431.044 -54.3912 2.65017 431.044
2007 1 -56.1035 2.63169 432.933 -56.1035 2.63169 432.933
1456 1 -41.3425 2.70061 425.94 -41.3425 2.70061 425.94
1741 1 -43.056 2.68279 427.828 -43.056 2.68279 427.828
1738 1 -44.7691 2.66476 429.716 -44.7691 2.66476 429.716
2024 1 -46.482 2.64659 431.604 -46.482 2.64659 431.604
2021 1 -48.1945 2.62831 433.492 -48.1945 2.62831 433.492
2035 1 -40.2858 2.62455 434.053 -40.2858 2.62455 434.053
1754 1 -35.7828 1.96212 426.001 -35.7828 1.96212 426.001
1423 1 -60.1529 1.26011 421.928 -60.1529 1.26011 421.928
1420 1 -61.8655 1.24172 423.817 -61.8655 1.24172 423.817
2044 1 -34.7277 1.88695 434.114 -34.7277 1.88695 434.114
1437 1 -52.2428 1.25654 422.488 -52.2428 1.25654 422.488
1434 1 -53.9556 1.23816 424.376 -53.9556 1.23816 424.376
1721 1 -55.6683 1.21972 426.265 -55.6683 1.21972 426.265
1717 1 -57.3809 1.20125 428.153 -57.3809 1.20125 428.153
1714 1 -59.0933 1.18276 430.042 -59.0933 1.18276 430.042
1999 1 -60.8057 1.16426 431.931 -60.8057 1.16426 431.931
1997 1 -62.5179 1.14577 433.819 -62.5179 1.14577 433.819
1164 1 -42.6179 1.26952 421.161 -42.6179 1.26952 421.161
1451 1 -44.3318 1.2519 423.049 -44.3318 1.2519 423.049
1448 1 -46.0453 1.23402 424.936 -46.0453 1.23402 424.936
1734 1 -47.7584 1.21593 426.825 -47.7584 1.21593 426.825
1731 1 -49.4713 1.19769 428.713 -49.4713 1.19769 428.713
2016 1 -51.1839 1.17934 430.601 -51.1839 1.17934 430.601
2012 1 -52.8964 1.16093 432.49 -52.8964 1.16093 432.49
2009 1 -54.6086 1.14247 434.378 -54.6086 1.14247 434.378
1746 1 -39.848 1.21132 427.386 -39.848 1.21132 427.386
1744 1 -41.5615 1.19351 429.274 -41.5615 1.19351 429.274
2030 1 -43.2746 1.17551 431.162 -43.2746 1.17551 431.162
2027 1 -44.9874 1.15736 433.05 -44.9874 1.15736 433.05
2325 1 -38.7915 1.1354 435.499 -38.7915 1.1354 435.499
1749 1 -38.3537 4.14953 428.832 -38.3537 4.14953 428.832
1425 1 -58.658 4.19827 423.374 -58.658 4.19827 423.374
1736 1 -46.2637 4.15406 428.27 -46.2637 4.15406 428.27
1142 1 -56.0889 2.01218 420.541 -56.0889 2.01218 420.541
1720 1 -55.886 4.13943 429.599 -55.886 4.13943 429.599
2005 1 -57.5984 4.12094 431.487 -57.5984 4.12094 431.487
2002 1 -59.3107 4.10244 433.376 -59.3107 4.10244 433.376
1169 1 -39.409 4.22494 420.72 -39.409 4.22494 420.72
1723 1 -54.1735 4.15789 427.71 -54.1735 4.15789 427.71
1440 1 -50.7479 4.19464 423.933 -50.7479 4.19464 423.933
1733 1 -47.9766 4.13585 430.158 -47.9766 4.13585 430.158
2018 1 -49.6892 4.11754 432.047 -49.6892 4.11754 432.047
2015 1 -51.4016 4.09916 433.935 -51.4016 4.09916 433.935
2036 1 -40.0671 4.13173 430.719 -40.0671 4.13173 430.719
2032 1 -41.7802 4.11374 432.607 -41.7802 4.11374 432.607
2326 1 -38.1535 1.85095 437.889 -38.1535 1.85095 437.889
1752 1 -36.6398 4.16713 426.945 -36.6398 4.16713 426.945
1457 1 -41.1232 4.20756 422.607 -41.1232 4.20756 422.607
2043 1 -35.3651 1.17121 431.724 -35.3651 1.17121 431.724
2286 1 -61.8789 1.86098 436.209 -61.8789 1.86098 436.209
2319 1 -42.2164 1.09903 439.276 -42.2164 1.09903 439.276
1436 1 -52.4608 4.1763 425.822 -52.4608 4.1763 425.822
1422 1 -60.3707 4.17984 425.262 -60.3707 4.17984 425.262
1173 1 -37.0572 0.530494 421.222 -37.0572 0.530494 421.222
2293 1 -58.0327 1.10553 438.156 -58.0327 1.10553 438.156
2289 1 -60.3838 0.371746 437.655 -60.3838 0.371746 437.655
2295 1 -56.5377 4.04384 439.601 -56.5377 4.04384 439.601
1465 1 -36.42 1.2463 423.612 -36.42 1.2463 423.612
2315 1 -44.5669 0.365314 438.774 -44.5669 0.365314 438.774
2331 1 -35.5843 4.09174 435.057 -35.5843 4.09174 435.057
2297 1 -55.6818 1.83933 438.657 -55.6818 1.83933 438.657
2324 1 -39.0097 4.05559 438.833 -39.0097 4.05559 438.833
2306 1 -50.1242 1.1024 438.715 -50.1242 1.1024 438.715
2285 1 -62.0957 0.353301 439.543 -62.0957 0.353301 439.543
1462 1 -38.1342 1.22892 425.499 -38.1342 1.22892 425.499
1751 1 -36.8593 2.66034 430.278 -36.8593 2.66034 430.278
2329 1 -36.4408 1.86903 436.001 -36.4408 1.86903 436.001
2042 1 -36.2219 3.37605 432.667 -36.2219 3.37605 432.667
2041 1 -37.0785 1.15339 433.611 -37.0785 1.15339 433.611
2593 1 -50.9802 3.30694 439.66 -50.9802 3.30694 439.66
2328 1 -36.6593 0.361848 439.335 -36.6593 0.361848 439.335
2301 1 -53.3309 2.57314 439.158 -53.3309 2.57314 439.158
1466 1 -35.5628 3.46866 422.668 -35.5628 3.46866 422.668
2298 1 -55.4647 3.34696 435.323 -55.4647 3.34696 435.323
2321 1 -41.3603 3.32188 438.331 -41.3603 3.32188 438.331
2313 1 -46.0615 1.85448 437.328 -46.0615 1.85448 437.328
2294 1 -57.1768 3.32849 437.211 -57.1768 3.32849 437.211
2304 1 -51.619 2.59156 437.27 -51.619 2.59156 437.27
2300 1 -53.9698 1.85778 436.768 -53.9698 1.85778 436.768
2290 1 -59.5278 2.59471 436.71 -59.5278 2.59471 436.71
2318 1 -42.8547 0.383585 436.886 -42.8547 0.383585 436.886
2327 1 -37.2972 4.07373 436.945 -37.2972 4.07373 436.945
2004 1 -57.8157 2.6132 434.822 -57.8157 2.6132 434.822
2013 1 -52.2577 1.87622 434.88 -52.2577 1.87622 434.88
2288 1 -61.0229 4.08394 435.265 -61.0229 4.08394 435.265
2037 1 -39.4293 0.41984 433.109 -39.4293 0.41984 433.109
1739 1 -44.5506 4.17211 426.382 -44.5506 4.17211 426.382
1753 1 -36.0025 0.455444 429.334 -36.0025 0.455444 429.334
2307 1 -49.9069 2.60995 435.381 -49.9069 2.60995 435.381
2314 1 -45.2053 4.07736 436.384 -45.2053 4.07736 436.384
2040 1 -37.7161 0.437741 431.222 -37.7161 0.437741 431.222
2320 1 -41.9985 2.60642 435.941 -41.9985 2.60642 435.941
2292 1 -58.6718 0.390227 435.766 -58.6718 0.390227 435.766
2311 1 -47.5561 3.34366 435.882 -47.5561 3.34366 435.882
2302 1 -53.1138 4.08073 435.824 -53.1138 4.08073 435.824
2296 1 -56.3208 1.124 436.267 -56.3208 1.124 436.267
1463 1 -37.9144 2.73559 422.166 -37.9144 2.73559 422.166
2287 1 -61.2398 2.57624 438.599 -61.2398 2.57624 438.599
2291 1 -58.8887 3.31002 439.1 -58.8887 3.31002 439.1
2317 1 -43.7108 2.58818 437.83 -43.7108 2.58818 437.83
2038 1 -38.5727 2.64254 432.165 -38.5727 2.64254 432.165
2305 1 -50.763 0.387032 436.325 -50.763 0.387032 436.325
2332 1 -34.9467 0.379955 437.447 -34.9467 0.379955 437.447
1709 1 -62.0832 4.16139 427.151 -62.0832 4.16139 427.151
1468 1 -34.7055 1.26353 421.725 -34.7055 1.26353 421.725
1454 1 -42.8371 4.18996 424.494 -42.8371 4.18996 424.494
1429 1 -56.9453 4.21669 421.485 -56.9453 4.21669 421.485
1133 1 -61.6477 2.74943 420.483 -61.6477 2.74943 420.483
1175 1 -36.1999 2.75282 420.279 -36.1999 2.75282 420.279
2616 1 -37.7333 1.0591 443.614 -37.7333 1.0591 443.614
2901 1 -39.4449 1.04078 445.502 -39.4449 1.04078 445.502
2907 1 -36.239 3.99744 445.06 -36.239 3.99744 445.06
3194 1 -37.3118 0.267063 449.339 -37.3118 0.267063 449.339
2587 1 -54.1868 0.350214 440.103 -54.1868 0.350214 440.103
2597 1 -48.6295 4.0407 440.161 -48.6295 4.0407 440.161
2584 1 -55.8986 0.331821 441.991 -55.8986 0.331821 441.991
2581 1 -57.6101 0.313467 443.88 -57.6101 0.313467 443.88
2868 1 -59.3216 0.295166 445.769 -59.3216 0.295166 445.769
2865 1 -61.033 0.276931 447.657 -61.033 0.276931 447.657
2601 1 -46.2789 0.346997 440.663 -46.2789 0.346997 440.663
2598 1 -47.9906 0.328669 442.551 -47.9906 0.328669 442.551
2885 1 -49.7022 0.310361 444.44 -49.7022 0.310361 444.44
2882 1 -51.4136 0.292105 446.329 -51.4136 0.292105 446.329
2879 1 -53.1248 0.273933 448.218 -53.1248 0.273933 448.218
2612 1 -40.0835 0.325342 443.112 -40.0835 0.325342 443.112
2898 1 -41.7952 0.307031 445 -41.7952 0.307031 445
2895 1 -43.5065 0.28873 446.889 -43.5065 0.28873 446.889
3180 1 -45.2177 0.270467 448.778 -45.2177 0.270467 448.778
2576 1 -60.6005 3.29159 440.989 -60.6005 3.29159 440.989
2574 1 -62.3123 3.27321 442.878 -62.3123 3.27321 442.878
2589 1 -52.6919 3.28857 441.548 -52.6919 3.28857 441.548
2586 1 -54.4035 3.27022 443.437 -54.4035 3.27022 443.437
2874 1 -56.115 3.25193 445.326 -56.115 3.25193 445.326
2871 1 -57.8264 3.2337 447.215 -57.8264 3.2337 447.215
3155 1 -59.5376 3.21556 449.103 -59.5376 3.21556 449.103
2607 1 -43.0724 3.30361 440.22 -43.0724 3.30361 440.22
2604 1 -44.7843 3.2853 442.108 -44.7843 3.2853 442.108
2600 1 -46.4959 3.26699 443.997 -46.4959 3.26699 443.997
2887 1 -48.2073 3.2487 445.886 -48.2073 3.2487 445.886
2884 1 -49.9186 3.23046 447.775 -49.9186 3.23046 447.775
3168 1 -51.6297 3.21232 449.663 -51.6297 3.21232 449.663
2900 1 -40.3007 3.24535 446.446 -40.3007 3.24535 446.446
2897 1 -42.0119 3.22706 448.335 -42.0119 3.22706 448.335
2582 1 -57.3936 1.8209 440.546 -57.3936 1.8209 440.546
2579 1 -59.1053 1.8025 442.434 -59.1053 1.8025 442.434
2866 1 -60.8169 1.78415 444.323 -60.8169 1.78415 444.323
2578 1 -59.7446 1.08708 440.045 -59.7446 1.08708 440.045
2595 1 -49.4854 1.8178 441.105 -49.4854 1.8178 441.105
2592 1 -51.1971 1.79947 442.994 -51.1971 1.79947 442.994
2880 1 -52.9085 1.78117 444.883 -52.9085 1.78117 444.883
2877 1 -54.6199 1.76295 446.772 -54.6199 1.76295 446.772
2873 1 -56.3312 1.74481 448.66 -56.3312 1.74481 448.66
2609 1 -41.5779 1.81447 441.666 -41.5779 1.81447 441.666
2606 1 -43.2897 1.79616 443.554 -43.2897 1.79616 443.554
2892 1 -45.0012 1.77785 445.443 -45.0012 1.77785 445.443
2890 1 -46.7125 1.75958 447.332 -46.7125 1.75958 447.332
3174 1 -48.4236 1.74136 449.221 -48.4236 1.74136 449.221
2618 1 -36.8773 3.28198 442.669 -36.8773 3.28198 442.669
2585 1 -55.0427 2.55474 441.047 -55.0427 2.55474 441.047
2583 1 -56.7544 2.53636 442.936 -56.7544 2.53636 442.936
2870 1 -58.4659 2.51804 444.824 -58.4659 2.51804 444.824
2867 1 -60.1773 2.49977 446.713 -60.1773 2.49977 446.713
2863 1 -61.8887 2.48157 448.602 -61.8887 2.48157 448.602
2599 1 -47.1348 2.55156 441.607 -47.1348 2.55156 441.607
2596 1 -48.8464 2.53324 443.496 -48.8464 2.53324 443.496
2883 1 -50.5579 2.51495 445.384 -50.5579 2.51495 445.384
2881 1 -52.2692 2.49673 447.273 -52.2692 2.49673 447.273
3164 1 -53.9804 2.47861 449.162 -53.9804 2.47861 449.162
2610 1 -40.9394 2.52991 444.056 -40.9394 2.52991 444.056
2896 1 -42.6509 2.5116 445.945 -42.6509 2.5116 445.945
2893 1 -44.3621 2.49332 447.833 -44.3621 2.49332 447.833
3178 1 -46.0732 2.47509 449.722 -46.0732 2.47509 449.722
2575 1 -61.4564 1.06867 441.933 -61.4564 1.06867 441.933
2591 1 -51.8361 1.08402 440.604 -51.8361 1.08402 440.604
2588 1 -53.5478 1.06566 442.493 -53.5478 1.06566 442.493
2876 1 -55.2593 1.04734 444.382 -55.2593 1.04734 444.382
2872 1 -56.9707 1.02908 446.27 -56.9707 1.02908 446.27
2869 1 -58.682 1.01089 448.159 -58.682 1.01089 448.159
2605 1 -43.9284 1.08073 441.164 -43.9284 1.08073 441.164
2602 1 -45.6401 1.06242 443.053 -45.6401 1.06242 443.053
2889 1 -47.3516 1.04411 444.941 -47.3516 1.04411 444.941
2886 1 -49.063 1.02584 446.83 -49.063 1.02584 446.83
3170 1 -50.7742 1.00765 448.719 -50.7742 1.00765 448.719
2899 1 -41.1563 1.02247 447.391 -41.1563 1.02247 447.391
3184 1 -42.8674 1.0042 449.279 -42.8674 1.0042 449.279
2580 1 -58.2495 4.02542 441.49 -58.2495 4.02542 441.49
2577 1 -59.9611 4.00704 443.379 -59.9611 4.00704 443.379
2864 1 -61.6727 3.98872 445.267 -61.6727 3.98872 445.267
2862 1 -62.5285 1.76586 446.212 -62.5285 1.76586 446.212
2594 1 -50.3412 4.02236 442.05 -50.3412 4.02236 442.05
2590 1 -52.0528 4.00404 443.939 -52.0528 4.00404 443.939
2878 1 -53.7642 3.98578 445.827 -53.7642 3.98578 445.827
2875 1 -55.4755 3.96759 447.716 -55.4755 3.96759 447.716
3159 1 -57.1867 3.94951 449.605 -57.1867 3.94951 449.605
2611 1 -40.7219 4.03734 440.722 -40.7219 4.03734 440.722
2608 1 -42.4338 4.01905 442.61 -42.4338 4.01905 442.61
2894 1 -44.1455 4.00073 444.499 -44.1455 4.00073 444.499
2891 1 -45.8569 3.98244 446.387 -45.8569 3.98244 446.387
2888 1 -47.5681 3.96418 448.276 -47.5681 3.96418 448.276
2904 1 -37.9505 3.97911 446.948 -37.9505 3.97911 446.948
2621 1 -35.1652 3.30022 440.781 -35.1652 3.30022 440.781
2617 1 -37.5155 2.56648 440.279 -37.5155 2.56648 440.279
2614 1 -39.2276 2.54822 442.168 -39.2276 2.54822 442.168
2908 1 -35.6006 0.285423 447.45 -35.6006 0.285423 447.45
2619 1 -36.0213 1.07738 441.725 -36.0213 1.07738 441.725
2906 1 -36.4562 2.48996 448.395 -36.4562 2.48996 448.395
2905 1 -37.0948 1.77455 446.004 -37.0948 1.77455 446.004
2620 1 -35.3831 1.79288 444.116 -35.3831 1.79288 444.116
3190 1 -39.6618 3.96079 448.837 -39.6618 3.96079 448.837
2902 1 -38.8062 1.75622 447.893 -38.8062 1.75622 447.893
2903 1 -38.5891 3.26367 444.558 -38.5891 3.26367 444.558
2615 1 -38.3716 0.343628 441.223 -38.3716 0.343628 441.223
2909 1 -34.7448 2.50834 446.506 -34.7448 2.50834 446.506
14 1 -53.9417 4.44333 399.721 -53.9417 4.44333 399.721
7 1 -58.5586 2.94985 398.817 -58.5586 2.94985 398.817
25 1 -46.0117 4.43787 400.196 -46.0117 4.43787 400.196
38 1 -38.078 4.38818 400.709 -38.078 4.38818 400.709
23 1 -47.7253 4.40276 402.075 -47.7253 4.40276 402.075
287 1 -51.148 4.35928 405.823 -51.148 4.35928 405.823
878 1 -42.1784 4.28296 414.496 -42.1784 4.28296 414.496
579 1 -48.3785 4.30688 412.047 -48.3785 4.30688 412.047
585 1 -44.9486 4.34164 408.274 -44.9486 4.34164 408.274
290 1 -49.438 4.3785 403.938 -49.438 4.3785 403.938
11 1 -55.63 4.3878 401.523 -55.63 4.3878 401.523
595 1 -38.7488 4.31738 410.723 -38.7488 4.31738 410.723
1134 1 -61.4297 4.25707 417.149 -61.4297 4.25707 417.149
283 1 -52.8637 4.34439 407.709 -52.8637 4.34439 407.709
582 1 -46.6634 4.32407 410.161 -46.6634 4.32407 410.161
276 1 -57.3555 4.38918 403.384 -57.3555 4.38918 403.384
569 1 -54.5792 4.32964 409.594 -54.5792 4.32964 409.594
847 1 -59.7169 4.27534 415.26 -59.7169 4.27534 415.26
556 1 -62.4886 4.3344 409.034 -62.4886 4.3344 409.034
272 1 -59.0712 4.37697 405.253 -59.0712 4.37697 405.253
3 1 -60.3795 2.95772 400.506 -60.3795 2.95772 400.506
35 1 -39.7988 4.3929 402.602 -39.7988 4.3929 402.602
598 1 -37.0338 4.33461 408.836 -37.0338 4.33461 408.836
850 1 -58.0042 4.29368 413.371 -58.0042 4.29368 413.371