ITEM: TIMESTEP
0
ITEM: NUMBER OF ATOMS
4630
ITEM: BOX BOUNDS xy xz yz pp pp pp
-5.6640988501799995e+01 9.9660020349999996e+01 0.0000000000000000e+00
0.0000000000000000e+00 4.4274527100805940e+00 0.0000000000000000e+00
3.8000000000000000e+02 5.0000000000000000e+02 0.0000000000000000e+00
ITEM: ATOMS id type x y z xu yu zu
27 1 -42.3 2.63418 398.225 -42.3 2.63418 398.225
36 1 -36.8579 1.88634 397.93 -36.8579 1.88634 397.93
31 1 -39.9105 3.30841 398.51 -39.9105 3.30841 398.51
22 1 -45.3668 4.06248 398.84 -45.3668 4.06248 398.84
20 1 -46.1179 1.8467 399.766 -46.1179 1.8467 399.766
40 1 -34.4708 2.56357 398.222 -34.4708 2.56357 398.222
34 1 -37.5928 4.08723 398.843 -37.5928 4.08723 398.843
17 1 -48.4392 1.08489 399.443 -48.4392 1.08489 399.443
9 1 -53.8245 1.76208 399.71 -53.8245 1.76208 399.71
43 1 -32.1547 3.34323 398.559 -32.1547 3.34323 398.559
12 1 -51.5446 2.60818 400.075 -51.5446 2.60818 400.075
5 1 -56.2069 1.13551 399.416 -56.2069 1.13551 399.416
29 1 -40.6858 1.08289 399.435 -40.6858 1.08289 399.435
853 1 -52.2217 3.0455 414.634 -52.2217 3.0455 414.634
873 1 -41.3944 1.57398 414.031 -41.3944 1.57398 414.031
865 1 -45.2584 0.806461 415.698 -45.2584 0.806461 415.698
1174 1 -32.8693 2.25485 416.473 -32.8693 2.25485 416.473
883 1 -35.9751 0.835534 413.735 -35.9751 0.835534 413.735
863 1 -46.8103 2.31107 414.331 -46.8103 2.31107 414.331
315 1 -32.1429 1.7819 401.915 -32.1429 1.7819 401.915
307 1 -36.789 3.22269 404.578 -36.789 3.22269 404.578
1150 1 -46.7997 0.766299 417.723 -46.7997 0.766299 417.723
855 1 -50.6712 1.5411 416.001 -50.6712 1.5411 416.001
310 1 -35.2472 3.2557 402.564 -35.2472 3.2557 402.564
871 1 -42.1652 3.7685 415.042 -42.1652 3.7685 415.042
16 1 -49.2008 3.28785 400.373 -49.2008 3.28785 400.373
309 1 -35.2304 1.71865 405.946 -35.2304 1.71865 405.946
1156 1 -43.707 3.72936 417.065 -43.707 3.72936 417.065
867 1 -44.488 3.0399 414.686 -44.488 3.0399 414.686
1159 1 -41.3845 0.0309229 417.421 -41.3845 4.45838 417.421
1168 1 -35.966 3.72149 417.124 -35.966 3.72149 417.124
1170 1 -35.194 1.52656 416.114 -35.194 1.52656 416.114
594 1 -36.0012 3.91547 406.956 -36.0012 3.91547 406.956
37 1 -36.0297 2.55335 400.197 -36.0297 2.55335 400.197
851 1 -52.9912 0.811283 415.647 -52.9912 0.811283 415.647
857 1 -49.9014 3.77526 414.989 -49.9014 3.77526 414.989
592 1 -36.7717 1.68431 407.965 -36.7717 1.68431 407.965
849 1 -53.761 3.00428 416.66 -53.761 3.00428 416.66
877 1 -39.0707 2.30234 414.387 -39.0707 2.30234 414.387
1143 1 -51.4412 3.73421 417.014 -51.4412 3.73421 417.014
1140 1 -52.9819 3.69232 419.04 -52.9819 3.69232 419.04
845 1 -56.0802 2.27464 416.306 -56.0802 2.27464 416.306
875 1 -39.8419 0.0696033 415.398 -39.8419 4.49706 415.398
886 1 -34.4322 0.872052 411.715 -34.4322 0.872052 411.715
891 1 -31.3341 3.83102 411.066 -31.3341 3.83102 411.066
39 1 -34.481 1.0553 401.55 -34.481 1.0553 401.55
1177 1 -31.3171 0.750894 417.843 -31.3171 0.750894 417.843
1167 1 -36.7381 1.48876 418.135 -36.7381 1.48876 418.135
8 1 -54.6178 4.02917 400.749 -54.6178 4.02917 400.749
869 1 -42.936 1.53532 416.054 -42.936 1.53532 416.054
1136 1 -55.3012 2.96207 418.686 -55.3012 2.96207 418.686
1162 1 -39.8333 2.95417 418.789 -39.8333 2.95417 418.789
15 1 -49.9762 1.07168 401.428 -49.9762 1.07168 401.428
280 1 -51.5082 1.04158 403.446 -51.5082 1.04158 403.446
277 1 -53.0444 1.01669 405.465 -53.0444 1.01669 405.465
273 1 -54.5739 0.978655 407.493 -54.5739 0.978655 407.493
560 1 -56.1076 0.940221 409.52 -56.1076 0.940221 409.52
26 1 -42.2318 1.07175 401.468 -42.2318 1.07175 401.468
294 1 -43.7714 1.04303 403.503 -43.7714 1.04303 403.503
291 1 -45.3077 1.00673 405.526 -45.3077 1.00673 405.526
576 1 -46.8428 0.968808 407.549 -46.8428 0.968808 407.549
573 1 -48.3787 0.931064 409.572 -48.3787 0.931064 409.572
570 1 -49.9149 0.892048 411.596 -49.9149 0.892048 411.596
854 1 -51.4524 0.852041 413.621 -51.4524 0.852041 413.621
305 1 -37.5586 0.99215 405.586 -37.5586 0.99215 405.586
589 1 -39.0982 0.957025 407.607 -39.0982 0.957025 407.607
586 1 -40.6377 0.920852 409.629 -40.6377 0.920852 409.629
872 1 -42.1775 0.883722 411.651 -42.1775 0.883722 411.651
599 1 -32.8891 0.907542 409.695 -32.8891 0.907542 409.695
4 1 -56.168 4.03847 402.714 -56.168 4.03847 402.714
1152 1 -46.029 3.00022 416.71 -46.029 3.00022 416.71
19 1 -46.8964 4.03252 400.784 -46.8964 4.03252 400.784
286 1 -48.4245 3.9984 402.777 -48.4245 3.9984 402.777
282 1 -49.9523 3.96677 404.806 -49.9523 3.96677 404.806
279 1 -51.4869 3.93638 406.831 -51.4869 3.93638 406.831
565 1 -53.0199 3.89981 408.859 -53.0199 3.89981 408.859
563 1 -54.5551 3.86132 410.886 -54.5551 3.86132 410.886
846 1 -56.0919 3.82163 412.913 -56.0919 3.82163 412.913
32 1 -39.1375 4.0327 400.844 -39.1375 4.0327 400.844
300 1 -40.6772 4.00044 402.854 -40.6772 4.00044 402.854
297 1 -42.2137 3.9657 404.873 -42.2137 3.9657 404.873
293 1 -43.7503 3.93006 406.894 -43.7503 3.93006 406.894
578 1 -45.2871 3.89288 408.917 -45.2871 3.89288 408.917
575 1 -46.8246 3.85481 410.94 -46.8246 3.85481 410.94
860 1 -48.3626 3.81553 412.964 -48.3626 3.81553 412.964
591 1 -37.5421 3.88026 408.976 -37.5421 3.88026 408.976
588 1 -39.0829 3.84394 410.997 -39.0829 3.84394 410.997
874 1 -40.6238 3.80668 413.019 -40.6238 3.80668 413.019
10 1 -53.0698 2.53809 402.084 -53.0698 2.53809 402.084
274 1 -54.6065 2.5275 404.093 -54.6065 2.5275 404.093
271 1 -56.1282 2.4855 406.127 -56.1282 2.4855 406.127
24 1 -43.8126 2.58615 400.159 -43.8126 2.58615 400.159
21 1 -45.3412 2.54682 402.144 -45.3412 2.54682 402.144
288 1 -46.8674 2.5092 404.16 -46.8674 2.5092 404.16
285 1 -48.3986 2.47014 406.181 -48.3986 2.47014 406.181
571 1 -49.9329 2.4339 408.203 -49.9329 2.4339 408.203
568 1 -51.4674 2.39572 410.228 -51.4674 2.39572 410.228
852 1 -53.0036 2.35635 412.254 -53.0036 2.35635 412.254
848 1 -54.5414 2.31612 414.28 -54.5414 2.31612 414.28
306 1 -37.577 2.52662 402.2 -37.577 2.52662 402.2
302 1 -39.1172 2.49527 404.216 -39.1172 2.49527 404.216
299 1 -40.6551 2.4609 406.238 -40.6551 2.4609 406.238
583 1 -42.1933 2.42526 408.261 -42.1933 2.42526 408.261
581 1 -43.7319 2.38831 410.284 -43.7319 2.38831 410.284
866 1 -45.2709 2.35028 412.307 -45.2709 2.35028 412.307
880 1 -37.5287 2.33971 412.366 -37.5287 2.33971 412.366
312 1 -33.688 1.75143 403.928 -33.688 1.75143 403.928
13 1 -50.7354 3.26634 402.416 -50.7354 3.26634 402.416
278 1 -52.2763 3.24375 404.448 -52.2763 3.24375 404.448
275 1 -53.8083 3.21176 406.476 -53.8083 3.21176 406.476
562 1 -55.34 3.17311 408.506 -55.34 3.17311 408.506
1166 1 -37.5103 3.68328 419.145 -37.5103 3.68328 419.145
889 1 -32.1061 1.59963 412.075 -32.1061 1.59963 412.075
28 1 -41.465 3.30034 400.488 -41.465 3.30034 400.488
296 1 -43.0055 3.27209 402.496 -43.0055 3.27209 402.496
292 1 -44.5407 3.23896 404.516 -44.5407 3.23896 404.516
289 1 -46.0751 3.20168 406.538 -46.0751 3.20168 406.538
574 1 -47.6106 3.16385 408.561 -47.6106 3.16385 408.561
572 1 -49.1467 3.1255 410.584 -49.1467 3.1255 410.584
856 1 -50.6835 3.08588 412.609 -50.6835 3.08588 412.609
303 1 -38.3288 3.18833 406.597 -38.3288 3.18833 406.597
587 1 -39.868 3.15273 408.618 -39.868 3.15273 408.618
584 1 -41.4076 3.11611 410.64 -41.4076 3.11611 410.64
870 1 -42.9476 3.07852 412.663 -42.9476 3.07852 412.663
6 1 -55.4027 1.83602 401.698 -55.4027 1.83602 401.698
890 1 -31.3245 2.2914 414.454 -31.3245 2.2914 414.454
18 1 -47.6554 1.80254 401.778 -47.6554 1.80254 401.778
284 1 -49.1851 1.77005 403.798 -49.1851 1.77005 403.798
281 1 -50.7199 1.73902 405.821 -50.7199 1.73902 405.821
567 1 -52.2534 1.70509 407.846 -52.2534 1.70509 407.846
564 1 -53.7872 1.66697 409.873 -53.7872 1.66697 409.873
561 1 -55.3234 1.62797 411.899 -55.3234 1.62797 411.899
33 1 -38.3796 1.83659 399.86 -38.3796 1.83659 399.86
30 1 -39.9149 1.80025 401.838 -39.9149 1.80025 401.838
298 1 -41.4461 1.76872 403.859 -41.4461 1.76872 403.859
295 1 -42.9819 1.73432 405.882 -42.9819 1.73432 405.882
580 1 -44.5186 1.69781 407.905 -44.5186 1.69781 407.905
577 1 -46.0558 1.6602 409.928 -46.0558 1.6602 409.928
862 1 -47.5935 1.62157 411.952 -47.5935 1.62157 411.952
590 1 -38.3124 1.64852 409.986 -38.3124 1.64852 409.986
876 1 -39.8533 1.61171 412.008 -39.8533 1.61171 412.008
1163 1 -39.0615 0.759883 417.777 -39.0615 0.759883 417.777
1153 1 -45.2493 3.68928 419.089 -45.2493 3.68928 419.089
311 1 -34.4586 3.94926 404.937 -34.4586 3.94926 404.937
42 1 -32.9409 1.09252 399.575 -32.9409 1.09252 399.575
1135 1 -56.0717 0.726899 419.699 -56.0717 0.726899 419.699
1171 1 -34.4143 2.21751 418.493 -34.4143 2.21751 418.493
1139 1 -53.7525 1.45734 420.052 -53.7525 1.45734 420.052
601 1 -32.1174 3.13856 408.686 -32.1174 3.13856 408.686
313 1 -32.9132 3.98205 402.918 -32.9132 3.98205 402.918
858 1 -49.1318 1.58176 413.976 -49.1318 1.58176 413.976
868 1 -43.7177 0.845622 413.675 -43.7177 0.845622 413.675
1147 1 -49.1208 0.0366533 417.368 -49.1208 4.46411 417.368
593 1 -35.9869 2.37616 410.345 -35.9869 2.37616 410.345
308 1 -36.0183 1.02505 403.567 -36.0183 1.02505 403.567
861 1 -47.5803 0.0773421 415.344 -47.5803 4.50479 415.344
1158 1 -42.1559 2.22497 418.432 -42.1559 2.22497 418.432
884 1 -35.2036 3.06764 412.725 -35.2036 3.06764 412.725
881 1 -36.7466 3.03066 414.745 -36.7466 3.03066 414.745
885 1 -34.422 3.75888 415.104 -34.422 3.75888 415.104
859 1 -48.3504 2.27083 416.356 -48.3504 2.27083 416.356
596 1 -34.4449 2.41152 408.325 -34.4449 2.41152 408.325
879 1 -37.5181 0.798128 415.756 -37.5181 0.798128 415.756
1172 1 -33.6418 0.02255 417.483 -33.6418 4.45 417.483
1154 1 -44.478 1.4957 418.077 -44.478 1.4957 418.077
887 1 -33.65 1.56354 414.094 -33.65 1.56354 414.094
597 1 -33.6607 3.10366 410.705 -33.6607 3.10366 410.705
1161 1 -40.6131 2.2641 416.41 -40.6131 2.2641 416.41
1138 1 -54.531 0.76957 417.673 -54.531 0.76957 417.673
1149 1 -47.5706 2.95961 418.735 -47.5706 2.95961 418.735
41 1 -33.7021 3.28742 400.558 -33.7021 3.28742 400.558
888 1 -32.8781 3.79543 413.084 -32.8781 3.79543 413.084
1165 1 -38.2898 2.99284 416.767 -38.2898 2.99284 416.767
1141 1 -52.2114 1.49964 418.027 -52.2114 1.49964 418.027
1145 1 -49.8913 2.22972 418.381 -49.8913 2.22972 418.381
600 1 -32.9023 2.44559 406.308 -32.9023 2.44559 406.308
1148 1 -48.3416 0.725254 419.747 -48.3416 0.725254 419.747
882 1 -36.7578 0.144331 411.355 -36.7578 4.57178 411.355
1157 1 -42.9275 4.4188 419.444 -42.9275 4.4188 419.444
1144 1 -50.662 -0.00486377 419.393 -50.662 4.42259 419.393
602 1 -31.3455 0.941833 407.678 -31.3455 0.941833 407.678
1755 1 -30.5342 2.78726 426.997 -30.5342 2.78726 426.997
1460 1 -35.1823 2.87007 422.892 -35.1823 2.87007 422.892
2308 1 -43.6821 3.3123 437.408 -43.6821 3.3123 437.408
2316 1 -39.046 1.89567 434.725 -39.046 1.89567 434.725
2312 1 -41.3633 4.04512 437.761 -41.3633 4.04512 437.761
1464 1 -32.859 3.59945 423.25 -32.859 3.59945 423.25
1461 1 -34.4091 0.675626 421.882 -34.4091 0.675626 421.882
2039 1 -32.8583 3.40053 433.414 -32.8583 3.40053 433.414
2613 1 -34.4068 1.8161 438.824 -34.4068 1.8161 438.824
1467 1 -30.5354 4.32857 423.61 -30.5354 4.32857 423.61
2603 1 -39.8165 2.54263 439.127 -39.8165 2.54263 439.127
1443 1 -44.4709 4.37837 421.468 -44.4709 4.37837 421.468
1748 1 -34.4062 3.56087 425.27 -34.4062 3.56087 425.27
2023 1 -41.3656 1.16335 434.37 -41.3656 1.16335 434.37
2310 1 -42.1351 1.80964 438.774 -42.1351 1.80964 438.774
1151 1 -46.0206 1.45518 420.101 -46.0206 1.45518 420.101
2303 1 -46.7727 0.343988 438.067 -46.7727 0.343988 438.067
2299 1 -49.092 4.03895 437.714 -49.092 4.03895 437.714
2033 1 -35.9528 0.43492 434.068 -35.9528 0.43492 434.068
1433 1 -49.884 0.683391 421.772 -49.884 0.683391 421.772
1430 1 -51.427 0.640804 423.797 -51.427 0.640804 423.797
1426 1 -52.9704 0.597653 425.823 -52.9704 0.597653 425.823
1713 1 -54.5144 0.554156 427.848 -54.5144 0.554156 427.848
1710 1 -56.0587 0.510551 429.874 -56.0587 0.510551 429.874
2330 1 -30.5398 2.58952 437.159 -30.5398 2.58952 437.159
1160 1 -40.6053 0.720797 419.8 -40.6053 0.720797 419.8
1447 1 -42.1493 0.680868 421.823 -42.1493 0.680868 421.823
1444 1 -43.6937 0.640109 423.846 -43.6937 0.640109 423.846
1730 1 -45.2382 0.598551 425.87 -45.2382 0.598551 425.87
1727 1 -46.7828 0.556262 427.895 -46.7828 0.556262 427.895
1724 1 -48.3273 0.513363 429.919 -48.3273 0.513363 429.919
2008 1 -49.8717 0.470028 431.945 -49.8717 0.470028 431.945
2006 1 -51.4159 0.426464 433.97 -51.4159 0.426464 433.97
1458 1 -35.9554 0.636876 423.902 -35.9554 0.636876 423.902
1743 1 -37.5019 0.597336 425.924 -37.5019 0.597336 425.924
1740 1 -39.0482 0.556971 427.946 -39.0482 0.556971 427.946
2026 1 -40.5944 0.515766 429.969 -40.5944 0.515766 429.969
2022 1 -42.14 0.473747 431.992 -42.14 0.473747 431.992
2019 1 -43.6851 0.431001 434.017 -43.6851 0.431001 434.017
2309 1 -42.9102 1.1203 436.395 -42.9102 1.1203 436.395
1137 1 -54.5234 3.64963 421.065 -54.5234 3.64963 421.065
1421 1 -56.0658 3.60631 423.091 -56.0658 3.60631 423.091
1439 1 -46.792 3.64832 421.113 -46.792 3.64832 421.113
1435 1 -48.3352 3.60656 423.138 -48.3352 3.60656 423.138
1432 1 -49.8788 3.56407 425.163 -49.8788 3.56407 425.163
1719 1 -51.4227 3.52101 427.188 -51.4227 3.52101 427.188
1716 1 -52.9668 3.47759 429.214 -52.9668 3.47759 429.214
2001 1 -54.5112 3.43402 431.239 -54.5112 3.43402 431.239
1998 1 -56.0558 3.39053 433.264 -56.0558 3.39053 433.264
2323 1 -34.4062 3.35995 435.435 -34.4062 3.35995 435.435
1453 1 -39.055 3.64427 421.167 -39.055 3.64427 421.167
1450 1 -40.5999 3.60445 423.19 -40.5999 3.60445 423.19
1446 1 -42.1449 3.5638 425.213 -42.1449 3.5638 425.213
1732 1 -43.69 3.52235 427.236 -43.69 3.52235 427.236
1729 1 -45.235 3.48015 429.26 -45.235 3.48015 429.26
2014 1 -46.7798 3.43731 431.285 -46.7798 3.43731 431.285
2011 1 -48.3242 3.39399 433.31 -48.3242 3.39399 433.31
1745 1 -35.9533 3.52152 427.291 -35.9533 3.52152 427.291
1742 1 -37.5003 3.48133 429.313 -37.5003 3.48133 429.313
2028 1 -39.0469 3.44026 431.335 -39.0469 3.44026 431.335
2025 1 -40.5929 3.39834 433.358 -40.5929 3.39834 433.358
1427 1 -52.9752 2.14514 422.431 -52.9752 2.14514 422.431
1424 1 -54.5181 2.1019 424.457 -54.5181 2.1019 424.457
1711 1 -56.0618 2.05832 426.483 -56.0618 2.05832 426.483
2322 1 -35.1797 1.12553 436.446 -35.1797 1.12553 436.446
1750 1 -32.8572 2.05756 426.638 -32.8572 2.05756 426.638
1155 1 -43.6991 2.18497 420.456 -43.6991 2.18497 420.456
1441 1 -45.2427 2.14411 422.48 -45.2427 2.14411 422.48
1438 1 -46.7866 2.10245 424.504 -46.7866 2.10245 424.504
1725 1 -48.3307 2.06006 426.529 -48.3307 2.06006 426.529
1722 1 -49.875 2.01709 428.554 -49.875 2.01709 428.554
1718 1 -51.4193 1.97372 430.579 -51.4193 1.97372 430.579
2003 1 -52.9636 1.93016 432.605 -52.9636 1.93016 432.605
2000 1 -54.5078 1.88665 434.63 -54.5078 1.88665 434.63
1459 1 -35.9596 2.17939 420.514 -35.9596 2.17939 420.514
1455 1 -37.505 2.14049 422.535 -37.505 2.14049 422.535
1452 1 -39.0507 2.10079 424.557 -39.0507 2.10079 424.557
1737 1 -40.5964 2.06027 426.579 -40.5964 2.06027 426.579
1735 1 -42.1421 2.01894 428.602 -42.1421 2.01894 428.602
2020 1 -43.6874 1.97683 430.626 -43.6874 1.97683 430.626
2017 1 -45.2324 1.93404 432.651 -45.2324 1.93404 432.651
2034 1 -35.9527 1.97841 430.68 -35.9527 1.97841 430.68
2031 1 -37.4997 1.9375 432.702 -37.4997 1.9375 432.702
2029 1 -38.2729 4.13043 433.713 -38.2729 4.13043 433.713
1146 1 -49.1127 2.91815 420.76 -49.1127 2.91815 420.76
1431 1 -50.6554 2.87591 422.785 -50.6554 2.87591 422.785
1428 1 -52.1986 2.83301 424.81 -52.1986 2.83301 424.81
1715 1 -53.7423 2.78966 426.836 -53.7423 2.78966 426.836
1712 1 -55.2865 2.74608 428.861 -55.2865 2.74608 428.861
1747 1 -34.4051 2.01841 428.659 -34.4051 2.01841 428.659
1449 1 -41.3773 2.91466 420.811 -41.3773 2.91466 420.811
1445 1 -42.9215 2.87432 422.834 -42.9215 2.87432 422.834
1442 1 -44.4659 2.83315 424.858 -44.4659 2.83315 424.858
1728 1 -46.0105 2.79122 426.882 -46.0105 2.79122 426.882
1726 1 -47.5551 2.74861 428.907 -47.5551 2.74861 428.907
2010 1 -49.0995 2.70546 430.932 -49.0995 2.70546 430.932
2007 1 -50.6438 2.66199 432.957 -50.6438 2.66199 432.957
1456 1 -36.7286 2.83093 424.913 -36.7286 2.83093 424.913
1741 1 -38.2751 2.79099 426.935 -38.2751 2.79099 426.935
1738 1 -39.8213 2.7502 428.957 -39.8213 2.7502 428.957
2024 1 -41.3673 2.70858 430.98 -41.3673 2.70858 430.98
2021 1 -42.9127 2.66618 433.004 -42.9127 2.66618 433.004
2035 1 -35.1792 2.66914 433.057 -35.1792 2.66914 433.057
1754 1 -31.3093 2.09593 424.619 -31.3093 2.09593 424.619
1423 1 -55.2945 1.41431 422.078 -55.2945 1.41431 422.078
2044 1 -29.7622 1.9374 432.762 -29.7622 1.9374 432.762
1437 1 -47.5636 1.41381 422.126 -47.5636 1.41381 422.126
1434 1 -49.107 1.37167 424.151 -49.107 1.37167 424.151
1721 1 -50.6507 1.32887 426.176 -50.6507 1.32887 426.176
1717 1 -52.1947 1.28561 428.201 -52.1947 1.28561 428.201
1714 1 -53.739 1.24208 430.226 -53.739 1.24208 430.226
1999 1 -55.2835 1.19852 432.252 -55.2835 1.19852 432.252
1164 1 -38.2826 1.45016 420.156 -38.2826 1.45016 420.156
1451 1 -39.8274 1.41074 422.178 -39.8274 1.41074 422.178
1448 1 -41.3724 1.3705 424.201 -41.3724 1.3705 424.201
1734 1 -42.9175 1.32945 426.224 -42.9175 1.32945 426.224
1731 1 -44.4625 1.28761 428.248 -44.4625 1.28761 428.248
2016 1 -46.0074 1.24508 430.273 -46.0074 1.24508 430.273
2012 1 -47.552 1.20197 432.298 -47.552 1.20197 432.298
2009 1 -49.0962 1.15849 434.323 -49.0962 1.15849 434.323
1746 1 -35.1797 1.32757 426.281 -35.1797 1.32757 426.281
1744 1 -36.7268 1.2878 428.302 -36.7268 1.2878 428.302
2030 1 -38.2737 1.24718 430.324 -38.2737 1.24718 430.324
2027 1 -39.82 1.20568 432.347 -39.82 1.20568 432.347
2325 1 -33.6324 1.16665 434.424 -33.6324 1.16665 434.424
1749 1 -33.6312 4.25181 427.648 -33.6312 4.25181 427.648
1425 1 -53.7466 4.33731 423.444 -53.7466 4.33731 423.444
1736 1 -41.3693 4.25343 427.591 -41.3693 4.25343 427.591
1142 1 -51.4329 2.1878 420.406 -51.4329 2.1878 420.406
1720 1 -50.6471 4.20917 429.567 -50.6471 4.20917 429.567
2005 1 -52.1914 4.16568 431.592 -52.1914 4.16568 431.592
2002 1 -53.7357 4.12211 433.617 -53.7357 4.12211 433.617
1169 1 -35.1869 4.41227 419.503 -35.1869 4.41227 419.503
1723 1 -49.1028 4.25236 427.541 -49.1028 4.25236 427.541
1440 1 -46.0146 4.3371 423.492 -46.0146 4.3371 423.492
1733 1 -42.9148 4.2117 429.614 -42.9148 4.2117 429.614
2018 1 -44.46 4.16924 431.638 -44.46 4.16924 431.638
2015 1 -46.0046 4.12616 433.663 -46.0046 4.12616 433.663
2036 1 -35.1789 4.21225 429.669 -35.1789 4.21225 429.669
2032 1 -36.7263 4.1718 431.691 -36.7263 4.1718 431.691
2326 1 -32.8599 1.85767 436.802 -32.8599 1.85767 436.802
1752 1 -32.0833 4.29056 425.629 -32.0833 4.29056 425.629
1457 1 -36.7323 4.37376 421.524 -36.7323 4.37376 421.524
2043 1 -30.5349 1.2458 430.384 -30.5349 1.2458 430.384
2286 1 -56.0519 1.84337 436.655 -56.0519 1.84337 436.655
2319 1 -36.7257 1.08337 438.469 -36.7257 1.08337 438.469
1436 1 -47.5587 4.29506 425.516 -47.5587 4.29506 425.516
1422 1 -55.2899 4.29386 425.47 -55.2899 4.29386 425.47
1173 1 -32.863 0.713626 419.862 -32.863 0.713626 419.862
2293 1 -52.1831 1.07126 438.374 -52.1831 1.07126 438.374
2289 1 -54.5033 0.339533 438.02 -54.5033 0.339533 438.02
2295 1 -50.6346 3.99526 439.74 -50.6346 3.99526 439.74
1465 1 -32.0855 1.40473 422.241 -32.0855 1.40473 422.241
2315 1 -39.0445 0.350531 438.115 -39.0445 0.350531 438.115
2331 1 -30.537 4.13159 433.771 -30.537 4.13159 433.771
2297 1 -49.8634 1.80336 438.727 -49.8634 1.80336 438.727
2324 1 -33.6335 4.05075 437.813 -33.6335 4.05075 437.813
2306 1 -44.4538 1.07673 438.42 -44.4538 1.07673 438.42
2285 1 -56.0465 0.296581 440.045 -56.0465 0.296581 440.045
1462 1 -33.6326 1.36653 424.26 -33.6326 1.36653 424.26
1751 1 -32.0829 2.74874 429.016 -32.0829 2.74874 429.016
2329 1 -31.3116 1.89808 434.781 -31.3116 1.89808 434.781
2042 1 -31.3095 3.44009 431.394 -31.3095 3.44009 431.394
2041 1 -32.084 1.20671 432.404 -32.084 1.20671 432.404
2593 1 -45.2251 3.26854 439.433 -45.2251 3.26854 439.433
2328 1 -31.314 0.355516 438.169 -31.314 0.355516 438.169
2301 1 -47.5441 2.5358 439.08 -47.5441 2.5358 439.08
1466 1 -31.3121 3.6373 421.231 -31.3121 3.6373 421.231
2298 1 -49.8681 3.3504 435.336 -49.8681 3.3504 435.336
2321 1 -35.9529 3.3183 437.458 -35.9529 3.3183 437.458
2313 1 -40.5911 1.853 436.749 -40.5911 1.853 436.749
2294 1 -51.4116 3.30676 437.361 -51.4116 3.30676 437.361
2304 1 -46.0012 2.57959 437.054 -46.0012 2.57959 437.054
2300 1 -48.3204 1.84709 436.701 -48.3204 1.84709 436.701
2290 1 -53.7316 2.5749 437.008 -53.7316 2.5749 437.008
2318 1 -37.4993 0.393185 436.091 -37.4993 0.393185 436.091
2327 1 -32.0859 4.09174 435.791 -32.0859 4.09174 435.791
2004 1 -52.1879 2.61839 434.983 -52.1879 2.61839 434.983
2013 1 -46.7767 1.89073 434.676 -46.7767 1.89073 434.676
2288 1 -55.2799 4.07869 435.642 -55.2799 4.07869 435.642
2037 1 -34.4053 0.47567 432.047 -34.4053 0.47567 432.047
1739 1 -39.8236 4.29436 425.568 -39.8236 4.29436 425.568
1753 1 -31.3086 0.554369 428.007 -31.3086 0.554369 428.007
2307 1 -44.4573 2.62313 435.029 -44.4573 2.62313 435.029
2314 1 -39.8187 4.08816 435.737 -39.8187 4.08816 435.737
2040 1 -32.8571 0.515459 430.026 -32.8571 0.515459 430.026
2320 1 -36.7262 2.6279 435.08 -36.7262 2.6279 435.08
2292 1 -52.9598 0.382893 435.995 -52.9598 0.382893 435.995
2311 1 -42.138 3.35563 435.383 -42.138 3.35563 435.383
2302 1 -47.5487 4.08266 435.688 -47.5487 4.08266 435.688
2296 1 -50.6399 1.11484 436.348 -50.6399 1.11484 436.348
1463 1 -33.636 2.90844 420.872 -33.636 2.90844 420.872
2287 1 -55.2749 2.53172 439.033 -55.2749 2.53172 439.033
2291 1 -52.9545 3.26329 439.386 -52.9545 3.26329 439.386
2317 1 -38.2721 2.58569 437.103 -38.2721 2.58569 437.103
2038 1 -33.6313 2.70941 431.036 -33.6313 2.70941 431.036
2305 1 -45.2294 0.38768 436.042 -45.2294 0.38768 436.042
2332 1 -29.7652 0.395753 436.149 -29.7652 0.395753 436.149
1468 1 -30.5387 1.44224 420.222 -30.5387 1.44224 420.222
1454 1 -38.2779 4.33447 423.546 -38.2779 4.33447 423.546
1429 1 -52.2039 4.38028 421.419 -52.2039 4.38028 421.419
1133 1 99.4586 2.91899 420.712 -56.8424 2.91899 420.712
1175 1 -32.09 2.94608 418.852 -32.09 2.94608 418.852
2616 1 -32.0883 1.00452 442.569 -32.0883 1.00452 442.569
2901 1 -33.6318 0.96113 444.594 -33.6318 0.96113 444.594
2907 1 -30.5433 3.93003 443.936 -30.5433 3.93003 443.936
3194 1 -31.311 0.14826 448.341 -31.311 0.14826 448.341
2587 1 -48.3152 0.300167 440.093 -48.3152 0.300167 440.093
2597 1 -42.9065 4.00149 439.786 -42.9065 4.00149 439.786
2584 1 -49.8566 0.256476 442.119 -49.8566 0.256476 442.119
2581 1 -51.3972 0.213169 444.144 -51.3972 0.213169 444.144
2868 1 -52.9369 0.170484 446.17 -52.9369 0.170484 446.17
2865 1 -54.476 0.128628 448.194 -54.476 0.128628 448.194
2601 1 -40.5882 0.307121 440.14 -40.5882 0.307121 440.14
2598 1 -42.1302 0.263207 442.166 -42.1302 0.263207 442.166
2885 1 -43.6706 0.219101 444.192 -43.6706 0.219101 444.192
2882 1 -45.2094 0.175144 446.219 -45.2094 0.175144 446.219
2879 1 -46.7467 0.131673 448.246 -46.7467 0.131673 448.246
2612 1 -34.406 0.271297 442.215 -34.406 0.271297 442.215
2898 1 -35.9485 0.227577 444.24 -35.9485 0.227577 444.24
2895 1 -37.4886 0.183208 446.266 -37.4886 0.183208 446.266
3180 1 -39.0262 0.138624 448.294 -39.0262 0.138624 448.294
2576 1 -54.4969 3.22022 441.411 -54.4969 3.22022 441.411
2574 1 -56.0387 3.17774 443.436 -56.0387 3.17774 443.436
2589 1 -46.7669 3.22463 441.459 -46.7669 3.22463 441.459
2586 1 -48.3076 3.18084 443.485 -48.3076 3.18084 443.485
2874 1 -49.8471 3.13744 445.511 -49.8471 3.13744 445.511
2871 1 -51.3857 3.0947 447.537 -51.3857 3.0947 447.537
3155 1 -52.9236 3.05283 449.562 -52.9236 3.05283 449.562
2607 1 -37.498 3.27565 439.481 -37.498 3.27565 439.481
2604 1 -39.0414 3.23217 441.506 -39.0414 3.23217 441.506
2600 1 -40.5829 3.18813 443.533 -40.5829 3.18813 443.533
2887 1 -42.1224 3.1439 445.559 -42.1224 3.1439 445.559
2884 1 -43.6602 3.09984 447.587 -43.6602 3.09984 447.587
3168 1 -45.1963 3.05634 449.614 -45.1963 3.05634 449.614
2900 1 -34.4024 3.1528 445.607 -34.4024 3.1528 445.607
2897 1 -35.9416 3.10822 447.634 -35.9416 3.10822 447.634
2582 1 -51.4056 1.75978 440.752 -51.4056 1.75978 440.752
2579 1 -52.9471 1.71659 442.778 -52.9471 1.71659 442.778
2866 1 -54.4879 1.674 444.803 -54.4879 1.674 444.803
2578 1 -53.7258 1.02797 440.399 -53.7258 1.02797 440.399
2595 1 -43.6776 1.76581 440.799 -43.6776 1.76581 440.799
2592 1 -45.2188 1.72181 442.826 -45.2188 1.72181 442.826
2880 1 -46.7585 1.67793 444.852 -46.7585 1.67793 444.852
2877 1 -48.297 1.63449 446.878 -48.297 1.63449 446.878
2873 1 -49.8344 1.59175 448.904 -49.8344 1.59175 448.904
2609 1 -35.9519 1.77343 440.848 -35.9519 1.77343 440.848
2606 1 -37.4949 1.72984 442.873 -37.4949 1.72984 442.873
2892 1 -39.0357 1.68565 444.899 -39.0357 1.68565 444.899
2890 1 -40.5743 1.64125 446.927 -40.5743 1.64125 446.927
3174 1 -42.1109 1.59706 448.954 -42.1109 1.59706 448.954
2618 1 -31.3156 3.23948 441.558 -31.3156 3.23948 441.558
2585 1 -49.086 2.49202 441.106 -49.086 2.49202 441.106
2583 1 -50.627 2.44849 443.131 -50.627 2.44849 443.131
2870 1 -52.1671 2.40546 445.157 -52.1671 2.40546 445.157
2867 1 -53.7065 2.36317 447.182 -53.7065 2.36317 447.182
2863 1 -55.2454 2.32179 449.206 -55.2454 2.32179 449.206
2599 1 -41.3594 2.49893 441.153 -41.3594 2.49893 441.153
2596 1 -42.9006 2.45488 443.179 -42.9006 2.45488 443.179
2883 1 -44.4402 2.41081 445.206 -44.4402 2.41081 445.206
2881 1 -45.9782 2.36705 447.233 -45.9782 2.36705 447.233
3164 1 -47.5149 2.32395 449.259 -47.5149 2.32395 449.259
2610 1 -35.1776 2.46327 443.227 -35.1776 2.46327 443.227
2896 1 -36.7189 2.41917 445.253 -36.7189 2.41917 445.253
2893 1 -38.2577 2.37464 447.28 -38.2577 2.37464 447.28
3178 1 -39.7941 2.33012 449.308 -39.7941 2.33012 449.308
2575 1 -55.2679 0.985173 442.424 -55.2679 0.985173 442.424
2591 1 -45.9962 1.03286 440.446 -45.9962 1.03286 440.446
2588 1 -47.5374 0.988976 442.472 -47.5374 0.988976 442.472
2876 1 -49.0775 0.945349 444.498 -49.0775 0.945349 444.498
2872 1 -50.6165 0.902249 446.524 -50.6165 0.902249 446.524
2869 1 -52.1547 0.859917 448.549 -52.1547 0.859917 448.549
2605 1 -38.27 1.04027 440.494 -38.27 1.04027 440.494
2602 1 -39.8124 0.996471 442.519 -39.8124 0.996471 442.519
2889 1 -41.3529 0.952289 444.546 -41.3529 0.952289 444.546
2886 1 -42.8915 0.908094 446.573 -42.8915 0.908094 446.573
3170 1 -44.4284 0.864267 448.6 -44.4284 0.864267 448.6
2899 1 -35.1724 0.916837 446.62 -35.1724 0.916837 446.62
3184 1 -36.7102 0.872099 448.648 -36.7102 0.872099 448.648
2580 1 -52.1764 3.95185 441.765 -52.1764 3.95185 441.765
2577 1 -53.7176 3.90893 443.79 -53.7176 3.90893 443.79
2864 1 -55.2581 3.86672 445.815 -55.2581 3.86672 445.815
2862 1 -56.0282 1.6322 446.827 -56.0282 1.6322 446.827
2594 1 -44.4484 3.95754 441.812 -44.4484 3.95754 441.812
2590 1 -45.9888 3.91356 443.839 -45.9888 3.91356 443.839
2878 1 -47.5279 3.86987 445.865 -47.5279 3.86987 445.865
2875 1 -49.0658 3.82674 447.891 -49.0658 3.82674 447.891
3159 1 -50.6027 3.78445 449.917 -50.6027 3.78445 449.917
2611 1 -35.1796 4.00862 439.836 -35.1796 4.00862 439.836
2608 1 -36.7236 3.96546 441.86 -36.7236 3.96546 441.86
2894 1 -38.2655 3.92153 443.886 -38.2655 3.92153 443.886
2891 1 -39.8052 3.87718 445.913 -39.8052 3.87718 445.913
2888 1 -41.3428 3.83283 447.94 -41.3428 3.83283 447.94
2904 1 -32.0863 3.88646 445.961 -32.0863 3.88646 445.961
2621 1 -29.7684 3.28093 439.536 -29.7684 3.28093 439.536
2617 1 -32.0877 2.54865 439.18 -32.0877 2.54865 439.18
2614 1 -33.6338 2.50652 441.202 -33.6338 2.50652 441.202
2908 1 -29.7703 0.192673 446.315 -29.7703 0.192673 446.315
2619 1 -30.5423 1.04666 440.547 -30.5423 1.04666 440.547
2906 1 -30.5411 2.38432 447.328 -30.5411 2.38432 447.328
2905 1 -31.3152 1.69467 444.948 -31.3152 1.69467 444.948
2620 1 -29.7706 1.73759 442.925 -29.7706 1.73759 442.925
3190 1 -33.6261 3.84192 447.987 -33.6261 3.84192 447.987
2902 1 -32.8566 1.65055 446.974 -32.8566 1.65055 446.974
2903 1 -32.8604 3.19669 443.581 -32.8604 3.19669 443.581
2615 1 -32.861 0.314014 440.191 -32.861 0.314014 440.191
2909 1 -28.9986 2.42814 445.303 -28.9986 2.42814 445.303
14 1 -50.8273 0.407414 399.157 -50.8273 4.83487 399.157
7 1 -55.3406 3.35695 398.558 -55.3406 3.35695 398.558
25 1 -43.0419 0.406964 399.138 -43.0419 4.83442 399.138
38 1 -35.2434 0.338187 399.147 -35.2434 4.76564 399.147
23 1 -44.572 0.354364 401.147 -44.572 4.78182 401.147
287 1 -47.6329 0.274721 405.169 -47.6329 4.70217 405.169
878 1 -38.2997 0.107407 413.377 -38.2997 4.53486 413.377
579 1 -44.5013 0.155725 411.296 -44.5013 4.58318 411.296
585 1 -41.424 0.22963 407.25 -41.424 4.65708 407.25
290 1 -46.1038 0.313737 403.152 -46.1038 4.74119 403.152
11 1 -52.3086 0.344945 401.113 -52.3086 4.7724 401.113
595 1 -35.2159 0.180283 409.335 -35.2159 4.60774 409.335
1134 1 99.4511 0.0396979 417.319 -56.8499 4.46715 417.319
283 1 -49.1658 0.238086 407.191 -49.1658 4.66554 407.191
582 1 -42.9625 0.193226 409.272 -42.9625 4.62068 409.272
276 1 -53.8466 0.326807 403.097 -53.8466 4.75426 403.097
569 1 -50.7 0.201245 409.215 -50.7 4.6287 409.215
847 1 -55.3107 0.0818105 415.293 -55.3107 4.50926 415.293
272 1 -55.3672 0.292616 405.113 -55.3672 4.72007 405.113
35 1 -36.798 0.326319 401.176 -36.798 4.75377 401.176
598 1 -33.6736 0.215052 407.316 -33.6736 4.64251 407.316
850 1 -53.7723 0.122637 413.267 -53.7723 4.55009 413.267
304 1 -38.3446 0.299176 403.205 -38.3446 4.72663 403.205
301 1 -39.8852 0.264973 405.228 -39.8852 4.69243 405.228
314 1 -32.1302 0.24858 405.299 -32.1302 4.67603 405.299
864 1 -46.0405 0.117106 413.319 -46.0405 4.54456 413.319
566 1 -52.2352 0.162355 411.241 -52.2352 4.58981 411.241
1176 1 -32.0969 0.0595031 415.464 -32.0969 4.48696 415.464
85 1 -6.56583 1.13882 395.918 -6.56583 1.13882 395.918
58 1 -23.5943 1.07445 397.661 -23.5943 1.07445 397.661
45 1 -31.4191 1.14234 397.646 -31.4191 1.14234 397.646
49 1 -29.0324 1.81909 397.939 -29.0324 1.81909 397.939
72 1 -15.1092 3.33726 396.814 -15.1092 3.33726 396.814
80 1 -9.64049 2.56551 396.52 -9.64049 2.56551 396.52
75 1 -12.7247 4.01607 397.111 -12.7247 4.01607 397.111
83 1 -7.31443 3.33844 396.826 -7.31443 3.33844 396.826
52 1 -26.7166 2.59861 398.278 -26.7166 2.59861 398.278
61 1 -21.2792 1.85435 398.001 -21.2792 1.85435 398.001
63 1 -20.5431 4.08092 397.089 -20.5431 4.08092 397.089