ITEM: TIMESTEP
0
ITEM: NUMBER OF ATOMS
4630
ITEM: BOX BOUNDS xy xz yz pp pp pp
-6.2340988501799998e+01 1.0536002035000000e+02 0.0000000000000000e+00
0.0000000000000000e+00 4.4274527100805940e+00 0.0000000000000000e+00
3.8000000000000000e+02 5.0000000000000000e+02 0.0000000000000000e+00
ITEM: ATOMS id type x y z xu yu zu
27 1 -44.8898 2.31032 399.234 -44.8898 2.31032 399.234
36 1 -39.3446 1.56709 399.29 -39.3446 1.56709 399.29
31 1 -42.509 2.99856 399.673 -42.509 2.99856 399.673
22 1 -48.0501 3.74988 399.646 -48.0501 3.74988 399.646
20 1 -48.902 1.53001 400.504 -48.902 1.53001 400.504
40 1 -36.9664 2.25715 399.733 -36.9664 2.25715 399.733
34 1 -40.175 3.76609 400.137 -40.175 3.76609 400.137
17 1 -51.2405 0.776118 400.048 -51.2405 0.776118 400.048
9 1 -56.7443 1.46183 399.964 -56.7443 1.46183 399.964
43 1 -34.634 3.02548 400.198 -34.634 3.02548 400.198
12 1 -54.441 2.28413 400.456 -54.441 2.28413 400.456
5 1 -59.1167 0.80493 399.505 -59.1167 0.80493 399.505
29 1 -43.36 0.770395 400.536 -43.36 0.770395 400.536
853 1 -56.1528 2.84607 414.751 -56.1528 2.84607 414.751
873 1 -45.0838 1.36889 414.868 -45.0838 1.36889 414.868
865 1 -49.13 0.615943 416.259 -49.13 0.615943 416.259
1174 1 -36.5707 2.07202 417.827 -36.5707 2.07202 417.827
883 1 -39.5481 0.62913 414.928 -39.5481 0.62913 414.928
863 1 -50.6194 2.10832 414.809 -50.6194 2.10832 414.809
315 1 -34.8519 1.49178 403.514 -34.8519 1.49178 403.514
307 1 -39.7531 2.94476 405.848 -39.7531 2.94476 405.848
1150 1 -50.8339 0.594241 418.153 -50.8339 0.594241 418.153
855 1 -54.6638 1.35396 416.201 -54.6638 1.35396 416.201
310 1 -38.0473 2.96582 403.96 -38.0473 2.96582 403.96
871 1 -45.9362 3.57214 415.815 -45.9362 3.57214 415.815
16 1 -52.0864 2.97546 400.914 -52.0864 2.97546 400.914
309 1 -38.2627 1.45221 407.296 -38.2627 1.45221 407.296
1156 1 -47.6408 3.55093 417.708 -47.6408 3.55093 417.708
867 1 -48.2779 2.84035 415.312 -48.2779 2.84035 415.312
1159 1 -45.2995 4.28286 418.211 -45.2995 4.28286 418.211
1168 1 -39.7645 3.54342 418.27 -39.7645 3.54342 418.27
1170 1 -38.9119 1.34013 417.324 -38.9119 1.34013 417.324
594 1 -39.1155 3.65568 408.243 -39.1155 3.65568 408.243
37 1 -38.6821 2.25216 401.584 -38.6821 2.25216 401.584
851 1 -57.0044 0.621373 415.698 -57.0044 0.621373 415.698
857 1 -53.8122 3.5787 415.254 -53.8122 3.5787 415.254
592 1 -39.9681 1.43157 409.189 -39.9681 1.43157 409.189
849 1 -57.8561 2.82414 416.646 -57.8561 2.82414 416.646
877 1 -42.7422 2.10063 415.371 -42.7422 2.10063 415.371
1143 1 -55.5155 3.55668 417.148 -55.5155 3.55668 417.148
1140 1 -57.2187 3.53465 419.042 -57.2187 3.53465 419.042
845 1 -60.1967 2.09177 416.144 -60.1967 2.09177 416.144
875 1 -43.5947 4.3039 416.318 -43.5947 4.3039 416.318
886 1 -37.8427 0.649959 413.035 -37.8427 0.649959 413.035
891 1 -34.6484 3.60573 412.592 -34.6484 3.60573 412.592
39 1 -37.1988 0.757371 403.004 -37.1988 0.757371 403.004
1177 1 -35.0821 0.579824 419.277 -35.0821 0.579824 419.277
1167 1 -40.617 1.31922 419.217 -40.617 1.31922 419.217
8 1 -57.6141 3.72088 400.932 -57.6141 3.72088 400.932
869 1 -46.7886 1.34787 416.762 -46.7886 1.34787 416.762
1136 1 -59.5593 2.80218 418.54 -59.5593 2.80218 418.54
1162 1 -43.8105 2.79046 419.66 -43.8105 2.79046 419.66
15 1 -52.9456 0.768408 401.905 -52.9456 0.768408 401.905
280 1 -54.6522 0.747878 403.783 -54.6522 0.747878 403.783
277 1 -56.3652 0.738253 405.667 -56.3652 0.738253 405.667
273 1 -58.0672 0.71643 407.559 -58.0672 0.71643 407.559
560 1 -59.7686 0.693349 409.455 -59.7686 0.693349 409.455
557 1 -61.4715 0.671191 411.35 -61.4715 0.671191 411.35
26 1 -45.0706 0.770722 402.438 -45.0706 0.770722 402.438
294 1 -46.7792 0.752538 404.341 -46.7792 0.752538 404.341
291 1 -48.4842 0.728228 406.233 -48.4842 0.728228 406.233
576 1 -50.1888 0.705942 408.125 -50.1888 0.705942 408.125
573 1 -51.8942 0.685913 410.017 -51.8942 0.685913 410.017
570 1 -53.5982 0.665088 411.91 -53.5982 0.665088 411.91
854 1 -55.3013 0.643306 413.804 -55.3013 0.643306 413.804
305 1 -40.6048 0.720955 406.793 -40.6048 0.720955 406.793
589 1 -42.31 0.699988 408.687 -42.31 0.699988 408.687
586 1 -44.0152 0.678947 410.58 -44.0152 0.678947 410.58
872 1 -45.7204 0.658042 412.473 -45.7204 0.658042 412.473
599 1 -36.1373 0.670706 411.142 -36.1373 0.670706 411.142
1132 1 -61.8999 2.06986 418.039 -61.8999 2.06986 418.039
4 1 -59.3556 3.73673 402.752 -59.3556 3.73673 402.752
268 1 -61.0442 3.70151 404.658 -61.0442 3.70151 404.658
1152 1 -49.982 2.81886 417.206 -49.982 2.81886 417.206
19 1 -49.7652 3.71807 401.447 -49.7652 3.71807 401.447
286 1 -51.4612 3.69885 403.322 -51.4612 3.69885 403.322
282 1 -53.1639 3.68362 405.222 -53.1639 3.68362 405.222
279 1 -54.8731 3.66956 407.114 -54.8731 3.66956 407.114
565 1 -56.5769 3.64996 409.008 -56.5769 3.64996 409.008
563 1 -58.2793 3.62797 410.904 -58.2793 3.62797 410.904
846 1 -59.9824 3.60606 412.8 -59.9824 3.60606 412.8
32 1 -41.8783 3.72413 402.018 -41.8783 3.72413 402.018
300 1 -43.5855 3.70673 403.901 -43.5855 3.70673 403.901
297 1 -45.2904 3.68562 405.791 -45.2904 3.68562 405.791
293 1 -46.9946 3.66407 407.683 -46.9946 3.66407 407.683
578 1 -48.6994 3.64253 409.575 -48.6994 3.64253 409.575
575 1 -50.4046 3.62176 411.467 -50.4046 3.62176 411.467
860 1 -52.1088 3.60055 413.36 -52.1088 3.60055 413.36
591 1 -40.8208 3.6348 410.136 -40.8208 3.6348 410.136
588 1 -42.526 3.6139 412.029 -42.526 3.6139 412.029
874 1 -44.2312 3.59304 413.922 -44.2312 3.59304 413.922
10 1 -56.1393 2.22878 402.34 -56.1393 2.22878 402.34
274 1 -57.8602 2.23546 404.211 -57.8602 2.23546 404.211
271 1 -59.5568 2.20986 406.109 -59.5568 2.20986 406.109
558 1 -61.2575 2.18575 408.006 -61.2575 2.18575 408.006
24 1 -46.5814 2.26265 401.03 -46.5814 2.26265 401.03
21 1 -48.2771 2.24254 402.893 -48.2771 2.24254 402.893
288 1 -49.9734 2.21819 404.786 -49.9734 2.21819 404.786
285 1 -51.6773 2.1958 406.677 -51.6773 2.1958 406.677
571 1 -53.3838 2.17745 408.567 -53.3838 2.17745 408.567
568 1 -55.0876 2.15724 410.459 -55.0876 2.15724 410.459
852 1 -56.7903 2.13548 412.354 -56.7903 2.13548 412.354
848 1 -58.4934 2.11363 414.249 -58.4934 2.11363 414.249
306 1 -40.391 2.23269 403.453 -40.391 2.23269 403.453
302 1 -42.0953 2.21292 405.343 -42.0953 2.21292 405.343
299 1 -43.7997 2.1925 407.237 -43.7997 2.1925 407.237
583 1 -45.5046 2.17149 409.131 -45.5046 2.17149 409.131
581 1 -47.2098 2.15041 411.024 -47.2098 2.15041 411.024
866 1 -48.915 2.12958 412.916 -48.915 2.12958 412.916
880 1 -41.0369 2.12149 413.478 -41.0369 2.12149 413.478
312 1 -36.5575 1.47239 405.403 -36.5575 1.47239 405.403
2 1 -60.8594 0.816278 401.317 -60.8594 0.816278 401.317
13 1 -53.7913 2.96841 402.821 -53.7913 2.96841 402.821
278 1 -55.5078 2.9569 404.718 -55.5078 2.9569 404.718
275 1 -57.2162 2.9417 406.61 -57.2162 2.9417 406.61
562 1 -58.9173 2.91843 408.507 -58.9173 2.91843 408.507
559 1 -60.6199 2.89591 410.403 -60.6199 2.89591 410.403
1166 1 -41.4694 3.52243 420.163 -41.4694 3.52243 420.163
889 1 -35.5012 1.38169 413.539 -35.5012 1.38169 413.539
28 1 -44.2221 2.99401 401.526 -44.2221 2.99401 401.526
296 1 -45.93 2.97505 403.397 -45.93 2.97505 403.397
292 1 -47.6327 2.95416 405.287 -47.6327 2.95416 405.287
289 1 -49.336 2.93081 407.18 -49.336 2.93081 407.18
574 1 -51.0415 2.90977 409.072 -51.0415 2.90977 409.072
572 1 -52.7464 2.88947 410.963 -52.7464 2.88947 410.963
856 1 -54.4498 2.868 412.857 -54.4498 2.868 412.857
303 1 -41.4579 2.92397 407.74 -41.4579 2.92397 407.74
587 1 -43.1627 2.90311 409.633 -43.1627 2.90311 409.633
584 1 -44.8678 2.88218 411.526 -44.8678 2.88218 411.526
870 1 -46.573 2.86135 413.419 -46.573 2.86135 413.419
6 1 -58.4943 1.52648 401.813 -58.4943 1.52648 401.813
270 1 -60.1973 1.50358 403.703 -60.1973 1.50358 403.703
267 1 -61.8938 1.47525 405.607 -61.8938 1.47525 405.607
890 1 -34.8653 2.09276 415.935 -34.8653 2.09276 415.935
18 1 -50.6055 1.49645 402.393 -50.6055 1.49645 402.393
284 1 -52.3097 1.47959 404.283 -52.3097 1.47959 404.283
281 1 -54.0193 1.46368 406.172 -54.0193 1.46368 406.172
567 1 -55.7258 1.44692 408.062 -55.7258 1.44692 408.062
564 1 -57.4281 1.4253 409.957 -57.4281 1.4253 409.957
561 1 -59.1308 1.40328 411.852 -59.1308 1.40328 411.852
844 1 -60.8341 1.38143 413.747 -60.8341 1.38143 413.747
33 1 -41.0423 1.52015 401.081 -41.0423 1.52015 401.081
30 1 -42.7381 1.49824 402.945 -42.7381 1.49824 402.945
298 1 -44.4382 1.48198 404.841 -44.4382 1.48198 404.841
295 1 -46.1422 1.46128 406.736 -46.1422 1.46128 406.736
580 1 -47.8469 1.43934 408.629 -47.8469 1.43934 408.629
577 1 -49.5521 1.41832 410.521 -49.5521 1.41832 410.521
862 1 -51.2569 1.39751 412.413 -51.2569 1.39751 412.413
590 1 -41.6733 1.41066 411.082 -41.6733 1.41066 411.082
876 1 -43.3786 1.38974 412.975 -43.3786 1.38974 412.975
1163 1 -42.9582 0.587297 418.714 -42.9582 0.587297 418.714
1153 1 -49.3448 3.52932 419.602 -49.3448 3.52932 419.602
311 1 -37.4094 3.67659 406.351 -37.4094 3.67659 406.351
42 1 -35.5013 0.779305 401.143 -35.5013 0.779305 401.143
1135 1 -60.4109 0.577454 419.488 -60.4109 0.577454 419.488
1171 1 -38.2759 2.05118 419.72 -38.2759 2.05118 419.72
1139 1 -58.0703 1.3099 419.99 -58.0703 1.3099 419.99
601 1 -35.2845 2.89471 410.196 -35.2845 2.89471 410.196
313 1 -35.7012 3.69771 404.457 -35.7012 3.69771 404.457
858 1 -52.9605 1.37593 414.306 -52.9605 1.37593 414.306
868 1 -47.4255 0.637179 414.366 -47.4255 0.637179 414.366
1147 1 -53.1748 4.28926 417.65 -53.1748 4.28926 417.65
843 1 -61.6857 3.58423 414.694 -61.6857 3.58423 414.694
593 1 -39.3317 2.14236 411.585 -39.3317 2.14236 411.585
308 1 -38.8998 0.741158 404.899 -38.8998 0.741158 404.899
861 1 -51.4713 4.31121 415.756 -51.4713 4.31121 415.756
1158 1 -46.1517 2.05848 419.158 -46.1517 2.05848 419.158
884 1 -38.6954 2.85328 413.981 -38.6954 2.85328 413.981
881 1 -40.4007 2.83243 415.874 -40.4007 2.83243 415.874
885 1 -38.0593 3.56428 416.378 -38.0593 3.56428 416.378
859 1 -52.323 2.08653 416.703 -52.323 2.08653 416.703
596 1 -37.6264 2.16312 409.693 -37.6264 2.16312 409.693
879 1 -41.2533 0.608265 416.821 -41.2533 0.608265 416.821
1172 1 -37.4233 4.27534 418.774 -37.4233 4.27534 418.774
1154 1 -48.4928 1.32645 418.655 -48.4928 1.32645 418.655
887 1 -37.2067 1.36095 415.431 -37.2067 1.36095 415.431
597 1 -36.9901 2.87406 412.089 -36.9901 2.87406 412.089
1161 1 -44.4471 2.07969 417.264 -44.4471 2.07969 417.264
1138 1 -58.7077 0.599437 417.593 -58.7077 0.599437 417.593
1149 1 -51.6857 2.79701 419.1 -51.6857 2.79701 419.1
41 1 -36.3385 2.98294 402.079 -36.3385 2.98294 402.079
888 1 -36.354 3.58506 414.485 -36.354 3.58506 414.485
1165 1 -42.1058 2.81153 417.767 -42.1058 2.81153 417.767
1141 1 -56.3671 1.33194 418.095 -56.3671 1.33194 418.095
1145 1 -54.0264 2.06451 418.597 -54.0264 2.06451 418.597
600 1 -35.921 2.18366 407.8 -35.921 2.18366 407.8
1148 1 -52.5374 0.572279 420.047 -52.5374 0.572279 420.047
882 1 -40.1843 4.34565 412.532 -40.1843 4.34565 412.532
1157 1 -47.0038 4.26148 420.104 -47.0038 4.26148 420.104
1144 1 -54.8781 4.26721 419.545 -54.8781 4.26721 419.545
602 1 -34.4315 0.691292 409.25 -34.4315 0.691292 409.25
1131 1 -62.114 0.555393 421.383 -62.114 0.555393 421.383
1755 1 -34.8795 2.69247 428.359 -34.8795 2.69247 428.359
1460 1 -39.3445 2.74115 424.009 -39.3445 2.74115 424.009
2308 1 -48.9271 3.32081 437.771 -48.9271 3.32081 437.771
2316 1 -44.0337 1.87309 435.432 -44.0337 1.87309 435.432
2312 1 -46.5873 4.05363 438.274 -46.5873 4.05363 438.274
1464 1 -37.0038 3.47334 424.513 -37.0038 3.47334 424.513
1461 1 -38.4922 0.538002 423.063 -38.4922 0.538002 423.063
2039 1 -37.6511 3.3605 434.543 -37.6511 3.3605 434.543
2613 1 -39.5685 1.82468 439.782 -39.5685 1.82468 439.782
1467 1 -34.6631 4.20554 425.016 -34.6631 4.20554 425.016
2603 1 -45.0987 2.56165 439.724 -45.0987 2.56165 439.724
1443 1 -48.7076 4.23978 421.998 -48.7076 4.23978 421.998
1748 1 -38.7083 3.45213 426.406 -38.7083 3.45213 426.406
2023 1 -46.3736 1.14034 434.929 -46.3736 1.14034 434.929
2310 1 -47.4384 1.82881 439.221 -47.4384 1.82881 439.221
1151 1 -50.1966 1.30468 420.549 -50.1966 1.30468 420.549
2303 1 -52.1181 0.363128 438.217 -52.1181 0.363128 438.217
2299 1 -54.4581 4.05774 437.715 -54.4581 4.05774 437.715
2033 1 -40.8425 0.403118 434.987 -40.8425 0.403118 434.987
1433 1 -54.2407 0.550201 421.941 -54.2407 0.550201 421.941
1430 1 -55.9439 0.528051 423.836 -55.9439 0.528051 423.836
1426 1 -57.6469 0.505837 425.73 -57.6469 0.505837 425.73
1713 1 -59.3498 0.483566 427.625 -59.3498 0.483566 427.625
1710 1 -61.0525 0.461254 429.52 -61.0525 0.461254 429.52
2330 1 -35.5265 2.57955 438.39 -35.5265 2.57955 438.39
1160 1 -44.6627 0.566089 420.607 -44.6627 0.566089 420.607
1447 1 -46.3669 0.544579 422.501 -46.3669 0.544579 422.501
1444 1 -48.0706 0.52281 424.395 -48.0706 0.52281 424.395
1730 1 -49.774 0.500851 426.289 -49.774 0.500851 426.289
1727 1 -51.4771 0.478753 428.184 -51.4771 0.478753 428.184
1724 1 -53.18 0.456552 430.078 -53.18 0.456552 430.078
2008 1 -54.8827 0.434277 431.973 -54.8827 0.434277 431.973
2006 1 -56.5852 0.411954 433.868 -56.5852 0.411954 433.868
1458 1 -40.1967 0.516788 424.956 -40.1967 0.516788 424.956
1743 1 -41.9008 0.49533 426.85 -41.9008 0.49533 426.85
1740 1 -43.6045 0.473642 428.744 -43.6045 0.473642 428.744
2026 1 -45.3079 0.451762 430.638 -45.3079 0.451762 430.638
2022 1 -47.0109 0.429732 432.532 -47.0109 0.429732 432.532
2019 1 -48.7135 0.407594 434.427 -48.7135 0.407594 434.427
2309 1 -48.076 1.11818 436.824 -48.076 1.11818 436.824
1137 1 -58.9219 3.51258 420.937 -58.9219 3.51258 420.937
1421 1 -60.625 3.49046 422.832 -60.625 3.49046 422.832
1439 1 -51.0484 3.50743 421.496 -51.0484 3.50743 421.496
1435 1 -52.7518 3.48539 423.39 -52.7518 3.48539 423.39
1432 1 -54.455 3.46324 425.285 -54.455 3.46324 425.285
1719 1 -56.1579 3.44102 427.18 -56.1579 3.44102 427.18
1716 1 -57.8607 3.41873 429.075 -57.8607 3.41873 429.075
2001 1 -59.5634 3.39641 430.97 -59.5634 3.39641 430.97
1998 1 -61.2659 3.37406 432.865 -61.2659 3.37406 432.865
2323 1 -39.3542 3.33863 436.437 -39.3542 3.33863 436.437
1453 1 -43.174 3.50122 422.057 -43.174 3.50122 422.057
1450 1 -44.8781 3.47973 423.95 -44.8781 3.47973 423.95
1446 1 -46.5818 3.458 425.844 -46.5818 3.458 425.844
1732 1 -48.2852 3.43607 427.739 -48.2852 3.43607 427.739
1729 1 -49.9883 3.414 429.633 -49.9883 3.414 429.633
2014 1 -51.6911 3.39182 431.528 -51.6911 3.39182 431.528
2011 1 -53.3937 3.36957 433.423 -53.3937 3.36957 433.423
1745 1 -40.4124 3.43068 428.299 -40.4124 3.43068 428.299
1742 1 -42.116 3.409 430.193 -42.116 3.409 430.193
2028 1 -43.8193 3.38713 432.088 -43.8193 3.38713 432.088
2025 1 -45.5223 3.36512 433.982 -45.5223 3.36512 433.982
1427 1 -57.4329 2.02031 422.386 -57.4329 2.02031 422.386
1424 1 -59.136 1.99813 424.281 -59.136 1.99813 424.281
1711 1 -60.8389 1.97589 426.176 -60.8389 1.97589 426.176
2322 1 -40.2056 1.1139 437.384 -40.2056 1.1139 437.384
1750 1 -37.22 1.96009 427.856 -37.22 1.96009 427.856
1155 1 -47.8558 2.03693 421.051 -47.8558 2.03693 421.051
1441 1 -49.5594 2.01511 422.946 -49.5594 2.01511 422.946
1438 1 -51.2629 1.99311 424.84 -51.2629 1.99311 424.84
1725 1 -52.966 1.97099 426.734 -52.966 1.97099 426.734
1722 1 -54.669 1.94877 428.629 -54.669 1.94877 428.629
1718 1 -56.3717 1.92649 430.524 -56.3717 1.92649 430.524
2003 1 -58.0743 1.90416 432.419 -58.0743 1.90416 432.419
2000 1 -59.7766 1.88181 434.314 -59.7766 1.88181 434.314
1459 1 -39.9808 2.03018 421.613 -39.9808 2.03018 421.613
1455 1 -41.6853 2.00897 423.506 -41.6853 2.00897 423.506
1452 1 -43.3894 1.9875 425.4 -43.3894 1.9875 425.4
1737 1 -45.0931 1.96579 427.294 -45.0931 1.96579 427.294
1735 1 -46.7965 1.94389 429.188 -46.7965 1.94389 429.188
2020 1 -48.4996 1.92184 431.083 -48.4996 1.92184 431.083
2017 1 -50.2023 1.89969 432.977 -50.2023 1.89969 432.977
2034 1 -40.6277 1.91697 431.643 -40.6277 1.91697 431.643
2031 1 -42.3309 1.8951 433.537 -42.3309 1.8951 433.537
2029 1 -43.1823 4.09784 434.485 -43.1823 4.09784 434.485
1146 1 -53.3891 2.77498 420.994 -53.3891 2.77498 420.994
1431 1 -55.0924 2.75286 422.888 -55.0924 2.75286 422.888
1428 1 -56.7955 2.73068 424.783 -56.7955 2.73068 424.783
1715 1 -58.4984 2.70843 426.678 -58.4984 2.70843 426.678
1712 1 -60.2012 2.68614 428.573 -60.2012 2.68614 428.573
1708 1 -61.9038 2.66381 430.468 -61.9038 2.66381 430.468
1747 1 -38.924 1.93864 429.749 -38.924 1.93864 429.749
1449 1 -45.5149 2.7691 421.554 -45.5149 2.7691 421.554
1445 1 -47.2188 2.74745 423.448 -47.2188 2.74745 423.448
1442 1 -48.9223 2.72558 425.342 -48.9223 2.72558 425.342
1728 1 -50.6256 2.70354 427.236 -50.6256 2.70354 427.236
1726 1 -52.3286 2.68139 429.131 -52.3286 2.68139 429.131
2010 1 -54.0314 2.65915 431.026 -54.0314 2.65915 431.026
2007 1 -55.734 2.63685 432.921 -55.734 2.63685 432.921
1456 1 -41.0488 2.71982 425.903 -41.0488 2.71982 425.903
1741 1 -42.7527 2.69824 427.797 -42.7527 2.69824 427.797
1738 1 -44.4562 2.67645 429.691 -44.4562 2.67645 429.691
2024 1 -46.1594 2.65449 431.585 -46.1594 2.65449 431.585
2021 1 -47.8622 2.6324 433.48 -47.8622 2.6324 433.48
2035 1 -39.991 2.6278 434.04 -39.991 2.6278 434.04
1754 1 -35.5155 1.98129 425.963 -35.5155 1.98129 425.963
1423 1 -59.7735 1.2878 421.884 -59.7735 1.2878 421.884
1420 1 -61.4765 1.26564 423.779 -61.4765 1.26564 423.779
2044 1 -34.4596 1.89032 434.099 -34.4596 1.89032 434.099
1437 1 -51.9001 1.2827 422.443 -51.9001 1.2827 422.443
1434 1 -53.6034 1.2606 424.338 -53.6034 1.2606 424.338
1721 1 -55.3065 1.23841 426.232 -55.3065 1.23841 426.232
1717 1 -57.0094 1.21616 428.127 -57.0094 1.21616 428.127
1714 1 -58.7121 1.19385 430.022 -58.7121 1.19385 430.022
1999 1 -60.4146 1.17151 431.917 -60.4146 1.17151 431.917
1997 1 -62.1171 1.14917 433.812 -62.1171 1.14917 433.812
1164 1 -42.3217 1.29813 421.11 -42.3217 1.29813 421.11
1451 1 -44.0261 1.27678 423.004 -44.0261 1.27678 423.004
1448 1 -45.73 1.25517 424.897 -45.73 1.25517 424.897
1734 1 -47.4335 1.23333 426.792 -47.4335 1.23333 426.792
1731 1 -49.1368 1.21133 428.686 -49.1368 1.21133 428.686
2016 1 -50.8398 1.1892 430.581 -50.8398 1.1892 430.581
2012 1 -52.5425 1.16698 432.475 -52.5425 1.16698 432.475
2009 1 -54.2449 1.14469 434.37 -54.2449 1.14469 434.37
1746 1 -39.5604 1.22771 427.353 -39.5604 1.22771 427.353
1744 1 -41.2643 1.20614 429.246 -41.2643 1.20614 429.246
2030 1 -42.9677 1.18436 431.14 -42.9677 1.18436 431.14
2027 1 -44.6708 1.16242 433.035 -44.6708 1.16242 433.035
2325 1 -38.5027 1.13586 435.49 -38.5027 1.13586 435.49
1749 1 -38.072 4.16312 428.803 -38.072 4.16312 428.803
1425 1 -58.2845 4.22295 423.334 -58.2845 4.22295 423.334
1736 1 -45.9448 4.16859 428.241 -45.9448 4.16859 428.241
1142 1 -55.7297 2.04244 420.492 -55.7297 2.04244 420.492
1720 1 -55.5204 4.15136 429.576 -55.5204 4.15136 429.576
2005 1 -57.223 4.12905 431.471 -57.223 4.12905 431.471
2002 1 -58.9255 4.10671 433.366 -58.9255 4.10671 433.366
1169 1 -39.1283 4.25443 420.667 -39.1283 4.25443 420.667
1723 1 -53.8175 4.17362 427.682 -53.8175 4.17362 427.682
1440 1 -50.4112 4.21786 423.893 -50.4112 4.21786 423.893
1733 1 -47.6481 4.14661 430.135 -47.6481 4.14661 430.135
2018 1 -49.351 4.1245 432.03 -49.351 4.1245 432.03
2015 1 -51.0536 4.1023 433.925 -51.0536 4.1023 433.925
2036 1 -39.7759 4.14156 430.696 -39.7759 4.14156 430.696
2032 1 -41.4793 4.11978 432.59 -41.4793 4.11978 432.59
2326 1 -37.866 1.84672 437.887 -37.866 1.84672 437.887
1752 1 -36.3678 4.18445 426.909 -36.3678 4.18445 426.909
1457 1 -40.8331 4.23333 422.56 -40.8331 4.23333 422.56
2043 1 -35.0957 1.17922 431.703 -35.0957 1.17922 431.703
2286 1 -61.4789 1.85947 436.209 -61.4789 1.85947 436.209
2319 1 -41.908 1.09183 439.279 -41.908 1.09183 439.279
1436 1 -52.1145 4.19579 425.787 -52.1145 4.19579 425.787
1422 1 -59.9874 4.20074 425.229 -59.9874 4.20074 425.229
1173 1 -36.7873 0.558997 421.17 -36.7873 0.558997 421.17
2293 1 -57.6493 1.10005 438.16 -57.6493 1.10005 438.16
2289 1 -59.9896 0.367283 437.658 -59.9896 0.367283 437.658
2295 1 -56.1601 4.03545 439.61 -56.1601 4.03545 439.61
1465 1 -36.1514 1.27013 423.566 -36.1514 1.27013 423.566
2315 1 -44.2476 0.359002 438.776 -44.2476 0.359002 438.776
2331 1 -35.3113 4.09322 435.046 -35.3113 4.09322 435.046
2297 1 -55.3091 1.83287 438.662 -55.3091 1.83287 438.662
2324 1 -38.7173 4.04944 438.834 -38.7173 4.04944 438.834
2306 1 -49.7782 1.09597 438.719 -49.7782 1.09597 438.719
2285 1 -61.6916 0.344996 439.553 -61.6916 0.344996 439.553
1462 1 -37.8561 1.24904 425.459 -37.8561 1.24904 425.459
1751 1 -36.5838 2.67114 430.253 -36.5838 2.67114 430.253
2329 1 -36.163 1.86861 435.993 -36.163 1.86861 435.993
2042 1 -35.9476 3.38219 432.649 -35.9476 3.38219 432.649
2041 1 -36.7994 1.15765 433.596 -36.7994 1.15765 433.596
2593 1 -50.6292 3.29858 439.666 -50.6292 3.29858 439.666
2328 1 -36.3778 0.354839 439.337 -36.3778 0.354839 439.337
2301 1 -52.9691 2.56572 439.164 -52.9691 2.56572 439.164
1466 1 -35.2989 3.49433 422.62 -35.2989 3.49433 422.62
2298 1 -55.0961 3.34726 435.318 -55.0961 3.34726 435.318
2321 1 -41.0568 3.31661 438.332 -41.0568 3.31661 438.332
2313 1 -45.7362 1.85098 437.326 -45.7362 1.85098 437.326
2294 1 -56.7983 3.32493 437.213 -56.7983 3.32493 437.213
2304 1 -51.267 2.58798 437.269 -51.267 2.58798 437.269
2300 1 -53.6071 1.85517 436.767 -53.6071 1.85517 436.767
2290 1 -59.1385 2.59217 436.711 -59.1385 2.59217 436.711
2318 1 -42.5452 0.381108 436.882 -42.5452 0.381108 436.882
2327 1 -37.0146 4.07141 436.94 -37.0146 4.07141 436.94
2004 1 -57.4363 2.61451 434.816 -57.4363 2.61451 434.816
2013 1 -51.9048 1.87745 434.872 -51.9048 1.87745 434.872
2288 1 -60.6278 4.08436 435.261 -60.6278 4.08436 435.261
2037 1 -39.1393 0.424984 433.093 -39.1393 0.424984 433.093
1739 1 -44.2413 4.1904 426.347 -44.2413 4.1904 426.347
1753 1 -35.7317 0.46811 429.306 -35.7317 0.46811 429.306
2307 1 -49.5648 2.61022 435.374 -49.5648 2.61022 435.374
2314 1 -44.885 4.07578 436.379 -44.885 4.07578 436.379
2040 1 -37.4358 0.44666 431.199 -37.4358 0.44666 431.199
2320 1 -41.6939 2.60585 435.934 -41.6939 2.60585 435.934
2292 1 -58.2874 0.389613 435.763 -58.2874 0.389613 435.763
2311 1 -47.2248 3.343 435.877 -47.2248 3.343 435.877
2302 1 -52.756 4.08004 435.82 -52.756 4.08004 435.82
2296 1 -55.9472 1.12237 436.265 -55.9472 1.12237 436.265
1463 1 -37.6398 2.76225 422.116 -37.6398 2.76225 422.116
2287 1 -60.8406 2.56986 438.606 -60.8406 2.56986 438.606
2291 1 -58.5003 3.30262 439.108 -58.5003 3.30262 439.108
2317 1 -43.3965 2.58379 437.829 -43.3965 2.58379 437.829
2038 1 -38.2876 2.64957 432.146 -38.2876 2.64957 432.146
2305 1 -50.4159 0.385381 436.322 -50.4159 0.385381 436.322
2332 1 -34.675 0.376768 437.443 -34.675 0.376768 437.443
1709 1 -61.6903 4.17848 427.124 -61.6903 4.17848 427.124
1468 1 -34.4463 1.29103 421.674 -34.4463 1.29103 421.674
1454 1 -42.5374 4.21199 424.453 -42.5374 4.21199 424.453
1429 1 -56.5813 4.24511 421.439 -56.5813 4.24511 421.439
1133 1 -61.2625 2.78016 420.435 -61.2625 2.78016 420.435
1175 1 -35.9348 2.78315 420.224 -35.9348 2.78315 420.224
2616 1 -37.443 1.04354 443.629 -37.443 1.04354 443.629
2901 1 -39.1446 1.02138 445.524 -39.1446 1.02138 445.524
2907 1 -35.9548 3.97909 445.079 -35.9548 3.97909 445.079
3194 1 -37.0184 0.240145 449.372 -37.0184 0.240145 449.372
2587 1 -53.82 0.340865 440.112 -53.82 0.340865 440.112
2597 1 -48.2894 4.03144 440.169 -48.2894 4.03144 440.169
2584 1 -55.5217 0.318622 442.007 -55.5217 0.318622 442.007
2581 1 -57.2233 0.296428 443.902 -57.2233 0.296428 443.902
2868 1 -58.9247 0.274309 445.797 -58.9247 0.274309 445.797
2865 1 -60.626 0.25229 447.691 -60.626 0.25229 447.691
2601 1 -45.9497 0.336843 440.671 -45.9497 0.336843 440.671
2598 1 -47.6514 0.314671 442.566 -47.6514 0.314671 442.566
2885 1 -49.3529 0.292524 444.461 -49.3529 0.292524 444.461
2882 1 -51.0542 0.270436 446.356 -51.0542 0.270436 446.356
2879 1 -52.7553 0.248448 448.251 -52.7553 0.248448 448.251
2612 1 -39.7822 0.310646 443.126 -39.7822 0.310646 443.126
2898 1 -41.4838 0.288493 445.021 -41.4838 0.288493 445.021
2895 1 -43.1851 0.266361 446.916 -43.1851 0.266361 446.916
3180 1 -44.8861 0.24428 448.811 -44.8861 0.24428 448.811
2576 1 -60.2021 3.28035 441.003 -60.2021 3.28035 441.003
2574 1 -61.9039 3.25815 442.898 -61.9039 3.25815 442.898
2589 1 -52.3309 3.27636 441.561 -52.3309 3.27636 441.561
2586 1 -54.0325 3.25417 443.456 -54.0325 3.25417 443.456
2874 1 -55.7339 3.23204 445.351 -55.7339 3.23204 445.351
2871 1 -57.4352 3.21 447.246 -57.4352 3.21 447.246
3155 1 -59.1363 3.18807 449.141 -59.1363 3.18807 449.141
2607 1 -42.7591 3.2945 440.226 -42.7591 3.2945 440.226
2604 1 -44.461 3.27235 442.121 -44.461 3.27235 442.121
2600 1 -46.1626 3.25019 444.016 -46.1626 3.25019 444.016
2887 1 -47.8639 3.22807 445.911 -47.8639 3.22807 445.911
2884 1 -49.565 3.20601 447.806 -49.565 3.20601 447.806
3168 1 -51.2659 3.18407 449.701 -51.2659 3.18407 449.701
2900 1 -39.9953 3.22403 446.471 -39.9953 3.22403 446.471
2897 1 -41.6964 3.20191 448.366 -41.6964 3.20191 448.366
2582 1 -57.011 1.81058 440.557 -57.011 1.81058 440.557
2579 1 -58.7127 1.78834 442.452 -58.7127 1.78834 442.452
2866 1 -60.4143 1.76617 444.347 -60.4143 1.76617 444.347
2578 1 -59.3512 1.07775 440.055 -59.3512 1.07775 440.055
2595 1 -49.1403 1.80662 441.116 -49.1403 1.80662 441.116
2592 1 -50.8419 1.78444 443.011 -50.8419 1.78444 443.011
2880 1 -52.5433 1.7623 444.906 -52.5433 1.7623 444.906
2877 1 -54.2446 1.74025 446.801 -54.2446 1.74025 446.801
2873 1 -55.9457 1.71831 448.696 -55.9457 1.71831 448.696
2609 1 -41.2706 1.80256 441.676 -41.2706 1.80256 441.676
2606 1 -42.9724 1.78041 443.571 -42.9724 1.78041 443.571
2892 1 -44.6738 1.75827 445.466 -44.6738 1.75827 445.466
2890 1 -46.375 1.73617 447.361 -46.375 1.73617 447.361
3174 1 -48.0759 1.71413 449.256 -48.0759 1.71413 449.256
2618 1 -36.5921 3.26834 442.682 -36.5921 3.26834 442.682
2585 1 -54.6709 2.54347 441.059 -54.6709 2.54347 441.059
2583 1 -56.3725 2.52124 442.954 -56.3725 2.52124 442.954
2870 1 -58.074 2.49908 444.849 -58.074 2.49908 444.849
2867 1 -59.7754 2.47701 446.744 -59.7754 2.47701 446.744
2863 1 -61.4767 2.45505 448.639 -61.4767 2.45505 448.639
2599 1 -46.8006 2.53948 441.619 -46.8006 2.53948 441.619
2596 1 -48.5022 2.51732 443.514 -48.5022 2.51732 443.514
2883 1 -50.2036 2.4952 445.409 -50.2036 2.4952 445.409
2881 1 -51.9047 2.47315 447.304 -51.9047 2.47315 447.304
3164 1 -53.6057 2.45123 449.199 -53.6057 2.45123 449.199
2610 1 -40.6331 2.5133 444.074 -40.6331 2.5133 444.074
2896 1 -42.3345 2.49115 445.969 -42.3345 2.49115 445.969
2893 1 -44.0356 2.46904 447.864 -44.0356 2.46904 447.864
3178 1 -45.7364 2.44699 449.759 -45.7364 2.44699 449.759
2575 1 -61.0531 1.05551 441.95 -61.0531 1.05551 441.95
2591 1 -51.4801 1.07375 440.614 -51.4801 1.07375 440.614
2588 1 -53.1818 1.05154 442.509 -53.1818 1.05154 442.509
2876 1 -54.8832 1.02937 444.404 -54.8832 1.02937 444.404
2872 1 -56.5845 1.00728 446.299 -56.5845 1.00728 446.299
2869 1 -58.2857 0.985295 448.194 -58.2857 0.985295 448.194
2605 1 -43.6101 1.0697 441.174 -43.6101 1.0697 441.174
2602 1 -45.3118 1.04754 443.068 -45.3118 1.04754 443.068
2889 1 -47.0133 1.0254 444.963 -47.0133 1.0254 444.963
2886 1 -48.7145 1.0033 446.859 -48.7145 1.0033 446.859
3170 1 -50.4155 0.981296 448.754 -50.4155 0.981296 448.754
2899 1 -40.8459 0.999234 447.419 -40.8459 0.999234 447.419
3184 1 -42.5468 0.977147 449.314 -42.5468 0.977147 449.314
2580 1 -57.8619 4.01318 441.505 -57.8619 4.01318 441.505
2577 1 -59.5635 3.99097 443.4 -59.5635 3.99097 443.4
2864 1 -61.2651 3.96885 445.294 -61.2651 3.96885 445.294
2862 1 -62.1158 1.74411 446.242 -62.1158 1.74411 446.242
2594 1 -49.9911 4.00925 442.064 -49.9911 4.00925 442.064
2590 1 -51.6927 3.98709 443.959 -51.6927 3.98709 443.959
2878 1 -53.394 3.96499 445.854 -53.394 3.96499 445.854
2875 1 -55.0951 3.94299 447.749 -55.0951 3.94299 447.749
3159 1 -56.7961 3.92111 449.644 -56.7961 3.92111 449.644
2611 1 -40.4196 4.02736 440.729 -40.4196 4.02736 440.729
2608 1 -42.1216 4.00522 442.624 -42.1216 4.00522 442.624
2894 1 -43.8232 3.98306 444.518 -43.8232 3.98306 444.518
2891 1 -45.5244 3.96094 446.413 -45.5244 3.96094 446.413
2888 1 -47.2255 3.93886 448.309 -47.2255 3.93886 448.309
2904 1 -37.6562 3.9569 446.974 -37.6562 3.9569 446.974
2621 1 -34.8898 3.29044 440.787 -34.8898 3.29044 440.787
2617 1 -37.2291 2.55755 440.284 -37.2291 2.55755 440.284
2614 1 -38.9313 2.53544 442.179 -38.9313 2.53544 442.179
2908 1 -35.3173 0.262347 447.477 -35.3173 0.262347 447.477
2619 1 -35.741 1.06568 441.735 -35.741 1.06568 441.735
2906 1 -36.1679 2.46496 448.425 -36.1679 2.46496 448.425
2905 1 -36.8056 1.75427 446.027 -36.8056 1.75427 446.027
2620 1 -35.1039 1.77646 444.132 -35.1039 1.77646 444.132
3190 1 -39.3573 3.93476 448.869 -39.3573 3.93476 448.869
2902 1 -38.5068 1.7321 447.922 -38.5068 1.7321 447.922
2903 1 -38.2939 3.24619 444.576 -38.2939 3.24619 444.576
2615 1 -38.0802 0.332778 441.232 -38.0802 0.332778 441.232
2909 1 -34.4667 2.48719 446.53 -34.4667 2.48719 446.53
14 1 -53.6188 0.0855992 399.607 -53.6188 4.51305 399.607
7 1 -58.2067 3.02303 398.707 -58.2067 3.02303 398.707
25 1 -45.7198 0.0814805 400.083 -45.7198 4.50893 400.083
38 1 -37.8172 0.0288151 400.595 -37.8172 4.45627 400.595
23 1 -47.4229 0.0423015 401.967 -47.4229 4.46975 401.967
287 1 -50.8254 4.41886 405.729 -50.8254 4.41886 405.729
878 1 -41.8896 4.32478 414.425 -41.8896 4.32478 414.425
579 1 -48.0625 4.35376 411.97 -48.0625 4.35376 411.97
585 1 -44.6521 4.39585 408.185 -44.6521 4.39585 408.185
290 1 -49.1253 4.44203 403.838 -49.1253 4.44203 403.838
11 1 -55.2918 0.0284625 401.42 -55.2918 4.45592 401.42
595 1 -38.479 4.3665 410.639 -38.479 4.3665 410.639
1134 1 -61.0483 4.29455 417.091 -61.0483 4.29455 417.091
283 1 -52.5307 4.39996 407.62 -52.5307 4.39996 407.62
582 1 -46.3572 4.37466 410.078 -46.3572 4.37466 410.078
276 1 -57.0069 0.025915 403.284 -57.0069 4.45337 403.284
569 1 -54.2359 4.3813 409.512 -54.2359 4.3813 409.512
847 1 -59.345 4.31643 415.196 -59.345 4.31643 415.196
556 1 -62.1091 4.38836 408.954 -62.1091 4.38836 408.954
272 1 -58.7103 4.43715 405.161 -58.7103 4.43715 405.161
3 1 -60.0268 3.02919 400.398 -60.0268 3.02919 400.398
35 1 -39.5302 0.0295688 402.494 -39.5302 4.45702 402.494
598 1 -36.7735 4.38727 408.747 -36.7735 4.38727 408.747
850 1 -57.6418 4.33827 413.301 -57.6418 4.33827 413.301