ITEM: TIMESTEP
0
ITEM: NUMBER OF ATOMS
4630
ITEM: BOX BOUNDS xy xz yz pp pp pp
-6.3640988501799995e+01 1.0666002035000000e+02 0.0000000000000000e+00
0.0000000000000000e+00 4.4274527100805940e+00 0.0000000000000000e+00
3.8000000000000000e+02 5.0000000000000000e+02 0.0000000000000000e+00
ITEM: ATOMS id type x y z xu yu zu
27 1 -45.8341 2.06268 399.614 -45.8341 2.06268 399.614
36 1 -40.2109 1.32152 399.672 -40.2109 1.32152 399.672
31 1 -43.4393 2.75871 400.052 -43.4393 2.75871 400.052
22 1 -49.0423 3.51101 400.019 -49.0423 3.51101 400.019
20 1 -49.9251 1.28881 400.863 -49.9251 1.28881 400.863
40 1 -37.8181 2.01883 400.113 -37.8181 2.01883 400.113
34 1 -41.0707 3.51981 400.505 -41.0707 3.51981 400.505
17 1 -52.2976 0.538543 400.417 -52.2976 0.538543 400.417
9 1 -57.8872 1.23028 400.327 -57.8872 1.23028 400.327
43 1 -35.4504 2.7807 400.566 -35.4504 2.7807 400.566
12 1 -55.5453 2.03944 400.809 -55.5453 2.03944 400.809
5 1 -60.2739 0.552862 399.865 -60.2739 0.552862 399.865
29 1 -44.3034 0.529983 400.905 -44.3034 0.529983 400.905
853 1 -57.3239 2.70069 414.964 -57.3239 2.70069 414.964
873 1 -46.0843 1.2252 415.094 -46.0843 1.2252 415.094
865 1 -50.1962 0.481775 416.466 -50.1962 0.481775 416.466
1174 1 -37.4461 1.94902 418.03 -37.4461 1.94902 418.03
883 1 -40.4635 0.486101 415.157 -40.4635 0.486101 415.157
863 1 -51.7055 1.96399 415.029 -51.7055 1.96399 415.029
315 1 -35.6764 1.27294 403.853 -35.6764 1.27294 403.853
307 1 -40.6526 2.73971 406.166 -40.6526 2.73971 406.166
1150 1 -51.9303 0.473052 418.339 -51.9303 0.473052 418.339
855 1 -55.8151 1.21879 416.402 -55.8151 1.21879 416.402
310 1 -38.9177 2.74939 404.297 -38.9177 2.74939 404.297
871 1 -46.952 3.43501 416.03 -46.952 3.43501 416.03
16 1 -53.1609 2.73689 401.272 -53.1609 2.73689 401.272
309 1 -39.143 1.25745 407.6 -39.143 1.25745 407.6
1156 1 -48.687 3.4269 417.903 -48.687 3.4269 417.903
867 1 -49.3288 2.69963 415.53 -49.3288 2.69963 415.53
1159 1 -46.3105 4.16237 418.403 -46.3105 4.16237 418.403
1168 1 -40.6899 3.42334 418.467 -40.6899 3.42334 418.467
1170 1 -39.8223 1.21357 417.53 -39.8223 1.21357 417.53
594 1 -40.0105 3.46704 408.538 -40.0105 3.46704 408.538
37 1 -39.5585 2.02194 401.948 -39.5585 2.02194 401.948
851 1 -58.1904 0.482261 415.902 -58.1904 0.482261 415.902
857 1 -54.9485 3.43716 415.465 -54.9485 3.43716 415.465
592 1 -40.8779 1.24924 409.474 -40.8779 1.24924 409.474
849 1 -59.057 2.69133 416.839 -59.057 2.69133 416.839
877 1 -43.7076 1.9605 415.594 -43.7076 1.9605 415.594
1143 1 -56.6817 3.42786 417.339 -56.6817 3.42786 417.339
1140 1 -58.4149 3.41862 419.214 -58.4149 3.41862 419.214
845 1 -61.4322 1.95484 416.34 -61.4322 1.95484 416.34
875 1 -44.5753 4.17031 416.53 -44.5753 4.17031 416.53
886 1 -38.7283 0.494147 413.284 -38.7283 0.494147 413.284
891 1 -35.4847 3.44746 412.847 -35.4847 3.44746 412.847
39 1 -38.0547 0.533119 403.347 -38.0547 0.533119 403.347
1177 1 -35.9374 0.466782 419.467 -35.9374 0.466782 419.467
1167 1 -41.5575 1.20565 419.404 -41.5575 1.20565 419.404
8 1 -58.7635 3.48517 401.284 -58.7635 3.48517 401.284
869 1 -47.8196 1.21729 416.967 -47.8196 1.21729 416.967
1136 1 -60.7903 2.68216 418.714 -60.7903 2.68216 418.714
1162 1 -44.8014 2.67999 419.84 -44.8014 2.67999 419.84
15 1 -54.0321 0.539132 402.256 -54.0321 0.539132 402.256
280 1 -55.7709 0.528328 404.105 -55.7709 0.528328 404.105
277 1 -57.5176 0.531657 405.968 -57.5176 0.531657 405.968
273 1 -59.2527 0.522442 407.838 -59.2527 0.522442 407.838
560 1 -60.9836 0.510566 409.714 -60.9836 0.510566 409.714
557 1 -62.716 0.500374 411.59 -62.716 0.500374 411.59
26 1 -46.041 0.543445 402.786 -46.041 0.543445 402.786
294 1 -47.78 0.536726 404.668 -47.78 0.536726 404.668
291 1 -49.5158 0.5238 406.539 -49.5158 0.5238 406.539
576 1 -51.2514 0.514586 408.411 -51.2514 0.514586 408.411
573 1 -52.9886 0.508179 410.281 -52.9886 0.508179 410.281
570 1 -54.724 0.500713 412.153 -54.724 0.500713 412.153
854 1 -56.4574 0.491667 414.027 -56.4574 0.491667 414.027
305 1 -41.5189 0.522214 407.102 -41.5189 0.522214 407.102
589 1 -43.2543 0.513944 408.975 -43.2543 0.513944 408.975
586 1 -44.9897 0.505653 410.848 -44.9897 0.505653 410.848
872 1 -46.7254 0.497653 412.721 -46.7254 0.497653 412.721
599 1 -36.9932 0.502346 411.41 -36.9932 0.502346 411.41
1132 1 -63.1656 1.94582 418.215 -63.1656 1.94582 418.215
4 1 -60.5469 3.50989 403.077 -60.5469 3.50989 403.077
268 1 -62.2691 3.48485 404.955 -62.2691 3.48485 404.955
1152 1 -51.0634 2.6912 417.403 -51.0634 2.6912 417.403
19 1 -50.8031 3.48053 401.79 -50.8031 3.48053 401.79
286 1 -52.5287 3.47564 403.652 -52.5287 3.47564 403.652
282 1 -54.2639 3.4742 405.533 -54.2639 3.4742 405.533
279 1 -56.0064 3.4728 407.404 -56.0064 3.4728 407.404
565 1 -57.7425 3.4661 409.276 -57.7425 3.4661 409.276
563 1 -59.4749 3.45593 411.151 -59.4749 3.45593 411.151
846 1 -61.2075 3.44602 413.027 -61.2075 3.44602 413.027
32 1 -42.7991 3.49137 402.373 -42.7991 3.49137 402.373
300 1 -44.5368 3.48816 404.237 -44.5368 3.48816 404.237
297 1 -46.273 3.47939 406.104 -46.273 3.47939 406.104
293 1 -48.0075 3.47028 407.976 -48.0075 3.47028 407.976
578 1 -49.7431 3.46153 409.848 -49.7431 3.46153 409.848
575 1 -51.4796 3.45406 411.719 -51.4796 3.45406 411.719
860 1 -53.2148 3.44612 413.591 -53.2148 3.44612 413.591
591 1 -41.7457 3.4588 410.411 -41.7457 3.4588 410.411
588 1 -43.4809 3.45072 412.285 -43.4809 3.45072 412.285
874 1 -45.2165 3.44281 414.158 -45.2165 3.44281 414.158
10 1 -57.2731 1.99782 402.677 -57.2731 1.99782 402.677
274 1 -59.0319 2.01825 404.524 -59.0319 2.01825 404.524
271 1 -60.7621 2.00508 406.397 -60.7621 2.00508 406.397
558 1 -62.4916 1.99187 408.276 -62.4916 1.99187 408.276
24 1 -47.5688 2.01807 401.38 -47.5688 2.01807 401.38
21 1 -49.2952 2.01563 403.228 -49.2952 2.01563 403.228
288 1 -51.0223 2.00377 405.104 -51.0223 2.00377 405.104
285 1 -52.7585 1.99498 406.976 -52.7585 1.99498 406.976
571 1 -54.4977 1.9901 408.844 -54.4977 1.9901 408.844
568 1 -56.2333 1.98314 410.715 -56.2333 1.98314 410.715
852 1 -57.9662 1.97374 412.589 -57.9662 1.97374 412.589
848 1 -59.699 1.96414 414.465 -59.699 1.96414 414.465
306 1 -41.2957 2.01163 403.791 -41.2957 2.01163 403.791
302 1 -43.0285 2.00389 405.663 -43.0285 2.00389 405.663
299 1 -44.7632 1.99646 407.538 -44.7632 1.99646 407.538
583 1 -46.4985 1.98805 409.412 -46.4985 1.98805 409.412
581 1 -48.2343 1.97975 411.285 -48.2343 1.97975 411.285
866 1 -49.9704 1.97207 413.156 -49.9704 1.97207 413.156
880 1 -41.9722 1.96841 413.721 -41.9722 1.96841 413.721
312 1 -37.4091 1.26536 405.724 -37.4091 1.26536 405.724
2 1 -62.069 0.568389 401.642 -62.069 0.568389 401.642
13 1 -54.8944 2.74466 403.156 -54.8944 2.74466 403.156
278 1 -56.6426 2.74342 405.032 -56.6426 2.74342 405.032
275 1 -58.3859 2.7417 406.899 -58.3859 2.7417 406.899
562 1 -60.1177 2.73003 408.775 -60.1177 2.73003 408.775
559 1 -61.8495 2.71901 410.652 -61.8495 2.71901 410.652
1166 1 -42.425 3.41539 420.34 -42.425 3.41539 420.34
889 1 -36.3521 1.22966 413.784 -36.3521 1.22966 413.784
28 1 -45.1772 2.76101 401.889 -45.1772 2.76101 401.889
296 1 -46.9162 2.75246 403.732 -46.9162 2.75246 403.732
292 1 -48.649 2.74396 405.602 -48.649 2.74396 405.602
289 1 -50.3829 2.73298 407.476 -50.3829 2.73298 407.476
574 1 -52.12 2.72528 409.347 -52.12 2.72528 409.347
572 1 -53.8567 2.71851 411.217 -53.8567 2.71851 411.217
856 1 -55.5908 2.71006 413.09 -55.5908 2.71006 413.09
303 1 -42.3871 2.73144 408.038 -42.3871 2.73144 408.038
587 1 -44.1221 2.72342 409.912 -44.1221 2.72342 409.912
584 1 -45.8575 2.71532 411.785 -45.8575 2.71532 411.785
870 1 -47.5934 2.70749 413.657 -47.5934 2.70749 413.657
6 1 -59.6645 1.29229 402.156 -59.6645 1.29229 402.156
270 1 -61.4077 1.28267 404.011 -61.4077 1.28267 404.011
267 1 -63.1324 1.26447 405.897 -63.1324 1.26447 405.897
890 1 -35.711 1.95706 416.157 -35.711 1.95706 416.157
18 1 -51.6565 1.2672 402.737 -51.6565 1.2672 402.737
284 1 -53.3936 1.26434 404.606 -53.3936 1.26434 404.606
281 1 -55.136 1.2603 406.472 -55.136 1.2603 406.472
567 1 -56.8757 1.25681 408.34 -56.8757 1.25681 408.34
564 1 -58.6089 1.2474 410.214 -58.6089 1.2474 410.214
561 1 -60.3412 1.23717 412.089 -60.3412 1.23717 412.089
844 1 -62.0741 1.22758 413.965 -62.0741 1.22758 413.965
33 1 -41.9513 1.27924 401.434 -41.9513 1.27924 401.434
30 1 -43.6738 1.27178 403.286 -43.6738 1.27178 403.286
298 1 -45.4051 1.26974 405.164 -45.4051 1.26974 405.164
295 1 -47.1398 1.2614 407.04 -47.1398 1.2614 407.04
580 1 -48.8751 1.25181 408.912 -48.8751 1.25181 408.912
577 1 -50.6114 1.24389 410.784 -50.6114 1.24389 410.784
862 1 -52.3474 1.23647 412.655 -52.3474 1.23647 412.655
590 1 -42.6132 1.24107 411.348 -42.6132 1.24107 411.348
876 1 -44.3487 1.23302 413.221 -44.3487 1.23302 413.221
1163 1 -43.9339 0.470282 418.904 -43.9339 0.470282 418.904
1153 1 -50.4212 3.4183 419.776 -50.4212 3.4183 419.776
311 1 -38.2752 3.47591 406.665 -38.2752 3.47591 406.665
42 1 -36.3314 0.539931 401.496 -36.3314 0.539931 401.496
1135 1 -61.657 0.463922 419.652 -61.657 0.463922 419.652
1171 1 -39.1811 1.94106 419.904 -39.1811 1.94106 419.904
1139 1 -59.2816 1.20032 420.151 -59.2816 1.20032 420.151
601 1 -36.1259 2.72016 410.473 -36.1259 2.72016 410.473
313 1 -36.5384 3.48514 404.79 -36.5384 3.48514 404.79
858 1 -54.0817 1.22799 414.528 -54.0817 1.22799 414.528
868 1 -48.4612 0.489893 414.593 -48.4612 0.489893 414.593
1147 1 -54.3061 4.1643 417.839 -54.3061 4.1643 417.839
843 1 -62.9408 3.43671 414.903 -62.9408 3.43671 414.903
593 1 -40.2369 1.97646 411.848 -40.2369 1.97646 411.848
308 1 -39.7847 0.530441 405.225 -39.7847 0.530441 405.225
861 1 -52.5726 4.17338 415.965 -52.5726 4.17338 415.965
1158 1 -47.1778 1.94454 419.34 -47.1778 1.94454 419.34
884 1 -39.5958 2.70384 414.221 -39.5958 2.70384 414.221
881 1 -41.3311 2.69586 416.094 -41.3311 2.69586 416.094
885 1 -38.9548 3.43128 416.594 -38.9548 3.43128 416.594
859 1 -53.4394 1.95515 416.902 -53.4394 1.95515 416.902
596 1 -38.5019 1.98461 409.974 -38.5019 1.98461 409.974
879 1 -42.1987 0.478184 417.03 -42.1987 0.478184 417.03
1172 1 -38.3136 4.15876 418.967 -38.3136 4.15876 418.967
1154 1 -49.5542 1.20893 418.84 -49.5542 1.20893 418.84
887 1 -38.0872 1.22156 415.657 -38.0872 1.22156 415.657
597 1 -37.8608 2.71193 412.347 -37.8608 2.71193 412.347
1161 1 -45.4429 1.95265 417.467 -45.4429 1.95265 417.467
1138 1 -59.9236 0.472997 417.777 -59.9236 0.472997 417.777
1149 1 -52.7971 2.68227 419.276 -52.7971 2.68227 419.276
41 1 -37.1798 2.75231 402.434 -37.1798 2.75231 402.434
888 1 -37.2196 3.43931 414.72 -37.2196 3.43931 414.72
1165 1 -43.0664 2.68797 417.967 -43.0664 2.68797 417.967
1141 1 -57.5483 1.20949 418.276 -57.5483 1.20949 418.276
1145 1 -55.1728 1.94596 418.776 -55.1728 1.94596 418.776
600 1 -36.7675 1.99282 408.1 -36.7675 1.99282 408.1
1148 1 -53.6639 0.463986 420.213 -53.6639 0.463986 420.213
882 1 -41.1046 4.18613 412.784 -41.1046 4.18613 412.784
1157 1 -48.045 4.15406 420.277 -48.045 4.15406 420.277
1144 1 -56.0395 4.15508 419.714 -56.0395 4.15508 419.714
602 1 -35.2584 0.510701 409.536 -35.2584 0.510701 409.536
1131 1 -63.3904 0.454996 421.527 -63.3904 0.454996 421.527
1755 1 -35.7483 2.6412 428.461 -35.7483 2.6412 428.461
1460 1 -40.2746 2.66046 424.15 -40.2746 2.66046 424.15
2308 1 -50.0357 3.33611 437.769 -50.0357 3.33611 437.769
2316 1 -45.06 1.87153 435.457 -45.06 1.87153 435.457
2312 1 -47.6602 4.07213 438.268 -47.6602 4.07213 438.268
1464 1 -37.8985 3.39598 424.65 -37.8985 3.39598 424.65
1461 1 -39.4073 0.450785 423.214 -39.4073 0.450785 423.214
2039 1 -38.5751 3.35188 434.582 -38.5751 3.35188 434.582
2613 1 -40.5338 1.85253 439.767 -40.5338 1.85253 439.767
1467 1 -35.5224 4.13151 425.15 -35.5224 4.13151 425.15
2603 1 -46.1514 2.59 439.705 -46.1514 2.59 439.705
1443 1 -49.7791 4.14539 422.15 -49.7791 4.14539 422.15
1748 1 -39.6331 3.38782 426.524 -39.6331 3.38782 426.524
2023 1 -47.4356 1.13558 434.957 -47.4356 1.13558 434.957
2310 1 -48.5269 1.85402 439.206 -48.5269 1.85402 439.206
1151 1 -51.2881 1.20014 420.713 -51.2881 1.20014 420.713
2303 1 -53.2778 0.381894 438.207 -53.2778 0.381894 438.207
2299 1 -55.6533 4.0732 437.707 -55.6533 4.0732 437.707
2033 1 -41.8176 0.398038 435.019 -41.8176 0.398038 435.019
1433 1 -55.3973 0.454847 422.088 -55.3973 0.454847 422.088
1430 1 -57.1307 0.445749 423.962 -57.1307 0.445749 423.962
1426 1 -58.8641 0.436715 425.837 -58.8641 0.436715 425.837
1713 1 -60.5975 0.427744 427.712 -60.5975 0.427744 427.712
1710 1 -62.3309 0.418827 429.586 -62.3309 0.418827 429.586
2330 1 -36.4247 2.59705 438.393 -36.4247 2.59705 438.393
1160 1 -45.6687 0.462176 420.777 -45.6687 0.462176 420.777
1447 1 -47.4031 0.453742 422.65 -47.4031 0.453742 422.65
1444 1 -49.137 0.445033 424.524 -49.137 0.445033 424.524
1730 1 -50.8706 0.436166 426.398 -50.8706 0.436166 426.398
1727 1 -52.6042 0.427234 428.273 -52.6042 0.427234 428.273
1724 1 -54.3376 0.418284 430.147 -54.3376 0.418284 430.147
2008 1 -56.071 0.40934 432.022 -56.071 0.40934 432.022
2006 1 -57.8043 0.400411 433.896 -57.8043 0.400411 433.896
1458 1 -41.1419 0.442647 425.087 -41.1419 0.442647 425.087
1743 1 -42.8762 0.434317 426.961 -42.8762 0.434317 426.961
1740 1 -44.6102 0.425799 428.835 -44.6102 0.425799 428.835
2026 1 -46.344 0.417135 430.709 -46.344 0.417135 430.709
2022 1 -48.0776 0.408379 432.583 -48.0776 0.408379 432.583
2019 1 -49.8111 0.39957 434.458 -49.8111 0.39957 434.458
2309 1 -49.169 1.12679 436.832 -49.169 1.12679 436.832
1137 1 -60.1483 3.40951 421.089 -60.1483 3.40951 421.089
1421 1 -61.8817 3.40052 422.963 -61.8817 3.40052 422.963
1439 1 -52.1549 3.40937 421.65 -52.1549 3.40937 421.65
1435 1 -53.8884 3.40032 423.525 -53.8884 3.40032 423.525
1432 1 -55.6219 3.39126 425.399 -55.6219 3.39126 425.399
1719 1 -57.3553 3.38224 427.274 -57.3553 3.38224 427.274
1716 1 -59.0887 3.37326 429.148 -59.0887 3.37326 429.148
2001 1 -60.8221 3.36432 431.023 -60.8221 3.36432 431.023
1998 1 -62.5554 3.35542 432.898 -62.5554 3.35542 432.898
2323 1 -40.3089 3.34332 436.456 -40.3089 3.34332 436.456
1453 1 -44.1597 3.40728 422.214 -44.1597 3.40728 422.214
1450 1 -45.894 3.39889 424.087 -45.894 3.39889 424.087
1446 1 -47.628 3.39026 425.961 -47.628 3.39026 425.961
1732 1 -49.3617 3.38148 427.835 -49.3617 3.38148 427.835
1729 1 -51.0953 3.37261 429.71 -51.0953 3.37261 429.71
2014 1 -52.8288 3.36371 431.584 -52.8288 3.36371 431.584
2011 1 -54.5622 3.3548 433.459 -54.5622 3.3548 433.459
1745 1 -41.3674 3.37951 428.398 -41.3674 3.37951 428.398
1742 1 -43.1014 3.37102 430.272 -43.1014 3.37102 430.272
2028 1 -44.8352 3.3624 432.146 -44.8352 3.3624 432.146
2025 1 -46.5688 3.35369 434.02 -46.5688 3.35369 434.02
1427 1 -58.6395 1.92764 422.525 -58.6395 1.92764 422.525
1424 1 -60.3729 1.91862 424.4 -60.3729 1.91862 424.4
1711 1 -62.1064 1.90968 426.275 -62.1064 1.90968 426.275
2322 1 -41.1757 1.12528 437.393 -41.1757 1.12528 437.393
1750 1 -38.1243 1.90558 427.961 -38.1243 1.90558 427.961
1155 1 -48.9121 1.93604 421.213 -48.9121 1.93604 421.213
1441 1 -50.6459 1.92723 423.087 -50.6459 1.92723 423.087
1438 1 -52.3795 1.91827 424.962 -52.3795 1.91827 424.962
1725 1 -54.113 1.90927 426.836 -54.113 1.90927 426.836
1722 1 -55.8465 1.90028 428.71 -55.8465 1.90028 428.71
1718 1 -57.5799 1.89131 430.585 -57.5799 1.89131 430.585
2003 1 -59.3132 1.88237 432.46 -59.3132 1.88237 432.46
2000 1 -61.0465 1.87346 434.334 -61.0465 1.87346 434.334
1459 1 -40.9161 1.93308 421.777 -40.9161 1.93308 421.777
1455 1 -42.6508 1.92495 423.65 -42.6508 1.92495 423.65
1452 1 -44.3851 1.9166 425.524 -44.3851 1.9166 425.524
1737 1 -46.1191 1.90803 427.398 -46.1191 1.90803 427.398
1735 1 -47.8529 1.89931 429.272 -47.8529 1.89931 429.272
2020 1 -49.5864 1.89051 431.146 -49.5864 1.89051 431.146
2017 1 -51.3199 1.88165 433.021 -51.3199 1.88165 433.021
2034 1 -41.5926 1.88881 431.708 -41.5926 1.88881 431.708
2031 1 -43.3264 1.88022 433.582 -43.3264 1.88022 433.582
2029 1 -44.1932 4.08961 434.52 -44.1932 4.08961 434.52
1146 1 -54.5306 2.67314 421.151 -54.5306 2.67314 421.151
1431 1 -56.264 2.66402 423.025 -56.264 2.66402 423.025
1428 1 -57.9974 2.65495 424.9 -57.9974 2.65495 424.9
1715 1 -59.7308 2.64595 426.774 -59.7308 2.64595 426.774
1712 1 -61.4642 2.63701 428.649 -61.4642 2.63701 428.649
1708 1 -63.1976 2.62811 430.524 -63.1976 2.62811 430.524
1747 1 -39.8586 1.89727 429.834 -39.8586 1.89727 429.834
1449 1 -46.536 2.67173 421.713 -46.536 2.67173 421.713
1445 1 -48.27 2.66314 423.587 -48.27 2.66314 423.587
1442 1 -50.0038 2.65434 425.461 -50.0038 2.65434 425.461
1728 1 -51.7374 2.64543 427.336 -51.7374 2.64543 427.336
1726 1 -53.4709 2.63649 429.21 -53.4709 2.63649 429.21
2010 1 -55.2043 2.62754 431.084 -55.2043 2.62754 431.084
2007 1 -56.9377 2.6186 432.959 -56.9377 2.6186 432.959
1456 1 -42.0091 2.65223 426.024 -42.0091 2.65223 426.024
1741 1 -43.7432 2.64381 427.898 -43.7432 2.64381 427.898
1738 1 -45.4771 2.63521 429.772 -45.4771 2.63521 429.772
2024 1 -47.2108 2.62649 431.646 -47.2108 2.62649 431.646
2021 1 -48.9444 2.61771 433.52 -48.9444 2.61771 433.52
2035 1 -40.9507 2.61606 434.082 -40.9507 2.61606 434.082
1754 1 -36.3898 1.91374 426.087 -36.3898 1.91374 426.087
1423 1 -61.015 1.19128 422.026 -61.015 1.19128 422.026
1420 1 -62.7484 1.18234 423.901 -62.7484 1.18234 423.901
2044 1 -35.3324 1.87817 434.145 -35.3324 1.87817 434.145
1437 1 -53.0217 1.19112 422.588 -53.0217 1.19112 422.588
1434 1 -54.7552 1.18206 424.462 -54.7552 1.18206 424.462
1721 1 -56.4886 1.17302 426.336 -56.4886 1.17302 426.336
1717 1 -58.222 1.16402 428.211 -58.222 1.16402 428.211
1714 1 -59.9554 1.15506 430.086 -59.9554 1.15506 430.086
1999 1 -61.6888 1.14614 431.96 -61.6888 1.14614 431.96
1997 1 -63.4221 1.13726 433.835 -63.4221 1.13726 433.835
1164 1 -43.2924 1.19764 421.277 -43.2924 1.19764 421.277
1451 1 -45.0269 1.18939 423.15 -45.0269 1.18939 423.15
1448 1 -46.7611 1.18088 425.024 -46.7611 1.18088 425.024
1734 1 -48.4949 1.17216 426.898 -48.4949 1.17216 426.898
1731 1 -50.2285 1.16333 428.772 -50.2285 1.16333 428.772
2016 1 -51.962 1.15444 430.647 -51.962 1.15444 430.647
2012 1 -53.6955 1.14553 432.521 -53.6955 1.14553 432.521
2009 1 -55.4288 1.13662 434.396 -55.4288 1.13662 434.396
1746 1 -40.5002 1.16996 427.461 -40.5002 1.16996 427.461
1744 1 -42.2344 1.16156 429.335 -42.2344 1.16156 429.335
2030 1 -43.9683 1.153 431.209 -43.9683 1.153 431.209
2027 1 -45.702 1.14433 433.083 -45.702 1.14433 433.083
2325 1 -39.442 1.13389 435.519 -39.442 1.13389 435.519
1749 1 -38.9915 4.11517 428.898 -38.9915 4.11517 428.898
1425 1 -59.5062 4.13685 423.463 -59.5062 4.13685 423.463
1736 1 -46.986 4.11741 428.335 -46.986 4.11741 428.335
1142 1 -56.9061 1.93676 420.651 -56.9061 1.93676 420.651
1720 1 -56.7132 4.10952 429.648 -56.7132 4.10952 429.648
2005 1 -58.4465 4.10056 431.522 -58.4465 4.10056 431.522
2002 1 -60.1799 4.09164 433.397 -60.1799 4.09164 433.397
1169 1 -40.0486 4.1508 420.84 -40.0486 4.1508 420.84
1723 1 -54.9798 4.1185 427.773 -54.9798 4.1185 427.773
1440 1 -51.5128 4.13648 424.024 -51.5128 4.13648 424.024
1733 1 -48.7197 4.10864 430.209 -48.7197 4.10864 430.209
2018 1 -50.4532 4.09981 432.084 -50.4532 4.09981 432.084
2015 1 -52.1866 4.09094 433.958 -52.1866 4.09094 433.958
2036 1 -40.7256 4.10678 430.771 -40.7256 4.10678 430.771
2032 1 -42.4595 4.09825 432.645 -42.4595 4.09825 432.645
2326 1 -38.8002 1.86117 437.893 -38.8002 1.86117 437.893
1752 1 -37.257 4.1234 427.024 -37.257 4.1234 427.024
1457 1 -41.7835 4.14276 422.714 -41.7835 4.14276 422.714
2043 1 -35.974 1.15077 431.771 -35.974 1.15077 431.771
2286 1 -62.7798 1.86457 436.209 -62.7798 1.86457 436.209
2319 1 -42.9092 1.1166 439.267 -42.9092 1.1166 439.267
1436 1 -53.2463 4.1275 425.899 -53.2463 4.1275 425.899
1422 1 -61.2396 4.12787 425.337 -61.2396 4.12787 425.337
1173 1 -37.6724 0.458797 421.34 -37.6724 0.458797 421.34
2293 1 -58.8954 1.11883 438.145 -58.8954 1.11883 438.145
2289 1 -61.2709 0.382609 437.645 -61.2709 0.382609 437.645
2295 1 -57.3865 4.06434 439.582 -57.3865 4.06434 439.582
1465 1 -37.0311 1.18628 423.714 -37.0311 1.18628 423.714
2315 1 -45.2847 0.380653 438.768 -45.2847 0.380653 438.768
2331 1 -36.1994 4.08769 435.082 -36.1994 4.08769 435.082
2297 1 -56.5199 1.85504 438.644 -56.5199 1.85504 438.644
2324 1 -39.667 4.07058 438.83 -39.667 4.07058 438.83
2306 1 -50.9023 1.11798 438.706 -50.9023 1.11798 438.706
2285 1 -63.0041 0.373733 439.52 -63.0041 0.373733 439.52
1462 1 -38.7658 1.17819 425.587 -38.7658 1.17819 425.587
1751 1 -37.4827 2.63296 430.334 -37.4827 2.63296 430.334
2329 1 -37.0664 1.86972 436.019 -37.0664 1.86972 436.019
2042 1 -36.8411 3.36033 432.708 -36.8411 3.36033 432.708
2041 1 -37.7081 1.14239 433.645 -37.7081 1.14239 433.645
2593 1 -51.769 3.32731 439.643 -51.769 3.32731 439.643
2328 1 -37.2915 0.379036 439.33 -37.2915 0.379036 439.33
2301 1 -54.1444 2.5912 439.144 -54.1444 2.5912 439.144
1466 1 -36.1637 3.40401 422.777 -36.1637 3.40401 422.777
2298 1 -56.2955 3.34589 435.333 -56.2955 3.34589 435.333
2321 1 -42.0425 3.33467 438.33 -42.0425 3.33467 438.33
2313 1 -46.7935 1.86279 437.331 -46.7935 1.86279 437.331
2294 1 -58.0287 3.337 437.208 -58.0287 3.337 437.208
2304 1 -52.4111 2.60004 437.269 -52.4111 2.60004 437.269
2300 1 -54.7866 1.86391 436.77 -54.7866 1.86391 436.77
2290 1 -60.4043 2.60078 436.708 -60.4043 2.60078 436.708
2318 1 -43.5512 0.389377 436.893 -43.5512 0.389377 436.893
2327 1 -37.9333 4.07919 436.956 -37.9333 4.07919 436.956
2004 1 -58.671 2.60968 434.834 -58.671 2.60968 434.834
2013 1 -53.0533 1.87278 434.895 -53.0533 1.87278 434.895
2288 1 -61.9132 4.08273 435.271 -61.9132 4.08273 435.271
2037 1 -40.0838 0.406608 433.145 -40.0838 0.406608 433.145
1739 1 -45.2521 4.12606 426.461 -45.2521 4.12606 426.461
1753 1 -36.6156 0.423368 429.398 -36.6156 0.423368 429.398
2307 1 -50.6778 2.60888 435.395 -50.6778 2.60888 435.395
2314 1 -45.9268 4.0809 436.394 -45.9268 4.0809 436.394
2040 1 -38.3498 0.415057 431.271 -38.3498 0.415057 431.271
2320 1 -42.6845 2.60744 435.956 -42.6845 2.60744 435.956
2292 1 -59.5376 0.3915 435.771 -59.5376 0.3915 435.771
2311 1 -48.3023 3.34492 435.894 -48.3023 3.34492 435.894
2302 1 -53.92 4.08207 435.833 -53.92 4.08207 435.833
2296 1 -57.1621 1.12772 436.27 -57.1621 1.12772 436.27
1463 1 -38.5399 2.66853 422.277 -38.5399 2.66853 422.277
2287 1 -62.1375 2.5919 438.583 -62.1375 2.5919 438.583
2291 1 -59.762 3.32812 439.082 -59.762 3.32812 439.082
2317 1 -44.418 2.59875 437.831 -44.418 2.59875 437.831
2038 1 -39.2168 2.62458 432.208 -39.2168 2.62458 432.208
2305 1 -51.5445 0.390735 436.332 -51.5445 0.390735 436.332
2332 1 -35.5578 0.387595 437.456 -35.5578 0.387595 437.456
1709 1 -62.9731 4.11896 427.212 -62.9731 4.11896 427.212
1468 1 -35.2962 1.19429 421.84 -35.2962 1.19429 421.84
1454 1 -43.518 4.13453 424.587 -43.518 4.13453 424.587
1429 1 -57.7728 4.14592 421.588 -57.7728 4.14592 421.588
1133 1 -62.5237 2.67317 420.589 -62.5237 2.67317 420.589
1175 1 -36.8049 2.67651 420.404 -36.8049 2.67651 420.404
2616 1 -38.3831 1.09765 443.578 -38.3831 1.09765 443.578
2901 1 -40.1164 1.08891 445.452 -40.1164 1.08891 445.452
2907 1 -36.8745 4.043 445.015 -36.8745 4.043 445.015
3194 1 -37.9655 0.334029 449.263 -37.9655 0.334029 449.263
2587 1 -55.011 0.373061 440.081 -55.011 0.373061 440.081
2597 1 -49.3935 4.06335 440.143 -49.3935 4.06335 440.143
2584 1 -56.7442 0.364242 441.956 -56.7442 0.364242 441.956
2581 1 -58.4773 0.35544 443.83 -58.4773 0.35544 443.83
2868 1 -60.2104 0.346644 445.705 -60.2104 0.346644 445.705
2865 1 -61.9434 0.337842 447.579 -61.9434 0.337842 447.579
2601 1 -47.0181 0.371894 440.642 -47.0181 0.371894 440.642
2598 1 -48.7513 0.363123 442.517 -48.7513 0.363123 442.517
2885 1 -50.4845 0.354363 444.391 -50.4845 0.354363 444.391
2882 1 -52.2176 0.345638 446.266 -52.2176 0.345638 446.266
2879 1 -53.9507 0.336961 448.141 -53.9507 0.336961 448.141
2612 1 -40.7585 0.361683 443.078 -40.7585 0.361683 443.078
2898 1 -42.4917 0.352934 444.953 -42.4917 0.352934 444.953
2895 1 -44.2248 0.344167 446.827 -44.2248 0.344167 446.827
3180 1 -45.9579 0.335412 448.702 -45.9579 0.335412 448.702
2576 1 -61.4951 3.31925 440.957 -61.4951 3.31925 440.957
2574 1 -63.2283 3.31039 442.831 -63.2283 3.31039 442.831
2589 1 -53.5022 3.3185 441.518 -53.5022 3.3185 441.518
2586 1 -55.2353 3.30973 443.393 -55.2353 3.30973 443.393
2874 1 -56.9684 3.30097 445.267 -56.9684 3.30097 445.267
2871 1 -58.7015 3.29224 447.142 -58.7015 3.29224 447.142
3155 1 -60.4345 3.28351 449.016 -60.4345 3.28351 449.016
2607 1 -43.776 3.32596 440.205 -43.776 3.32596 440.205
2604 1 -45.5093 3.31721 442.079 -45.5093 3.31721 442.079
2600 1 -47.2425 3.30845 443.954 -47.2425 3.30845 443.954
2887 1 -48.9756 3.29969 445.828 -48.9756 3.29969 445.828
2884 1 -50.7087 3.29097 447.703 -50.7087 3.29097 447.703
3168 1 -52.4418 3.2823 449.577 -52.4418 3.2823 449.577
2900 1 -40.983 3.29826 446.389 -40.983 3.29826 446.389
2897 1 -42.716 3.28949 448.264 -42.716 3.28949 448.264
2582 1 -58.2531 1.84619 440.519 -58.2531 1.84619 440.519
2579 1 -59.9862 1.83734 442.394 -59.9862 1.83734 442.394
2866 1 -61.7193 1.8285 444.268 -61.7193 1.8285 444.268
2578 1 -60.6286 1.10996 440.019 -60.6286 1.10996 440.019
2595 1 -50.2601 1.84523 441.08 -50.2601 1.84523 441.08
2592 1 -51.9933 1.83646 442.955 -51.9933 1.83646 442.955
2880 1 -53.7265 1.82771 444.829 -53.7265 1.82771 444.829
2877 1 -55.4596 1.819 446.704 -55.4596 1.819 446.704
2873 1 -57.1926 1.81034 448.579 -57.1926 1.81034 448.579
2609 1 -42.2672 1.84382 441.641 -42.2672 1.84382 441.641
2606 1 -44.0005 1.83507 443.516 -44.0005 1.83507 443.516
2892 1 -45.7337 1.82631 445.39 -45.7337 1.82631 445.39
2890 1 -47.4668 1.81755 447.265 -47.4668 1.81755 447.265
3174 1 -49.1998 1.80883 449.14 -49.1998 1.80883 449.14
2618 1 -37.5164 3.31573 442.641 -37.5164 3.31573 442.641
2585 1 -55.8776 2.58238 441.018 -55.8776 2.58238 441.018
2583 1 -57.6107 2.57357 442.893 -57.6107 2.57357 442.893
2870 1 -59.3438 2.56477 444.768 -59.3438 2.56477 444.768
2867 1 -61.0769 2.55597 446.642 -61.0769 2.55597 446.642
2863 1 -62.8098 2.54716 448.517 -62.8098 2.54716 448.517
2599 1 -47.8847 2.58123 441.58 -47.8847 2.58123 441.58
2596 1 -49.6179 2.57247 443.454 -49.6179 2.57247 443.454
2883 1 -51.3511 2.56372 445.329 -51.3511 2.56372 445.329
2881 1 -53.0842 2.55502 447.203 -53.0842 2.55502 447.203
3164 1 -54.8172 2.54637 449.078 -54.8172 2.54637 449.078
2610 1 -41.6251 2.57104 444.015 -41.6251 2.57104 444.015
2896 1 -43.3583 2.56228 445.89 -43.3583 2.56228 445.89
2893 1 -45.0914 2.55351 447.764 -45.0914 2.55351 447.764
3178 1 -46.8244 2.54478 449.639 -46.8244 2.54478 449.639
2575 1 -62.3617 1.10109 441.894 -62.3617 1.10109 441.894
2591 1 -52.6356 1.10918 440.581 -52.6356 1.10918 440.581
2588 1 -54.3688 1.10039 442.455 -54.3688 1.10039 442.455
2876 1 -56.1019 1.09162 444.33 -56.1019 1.09162 444.33
2872 1 -57.835 1.08288 446.204 -57.835 1.08288 446.204
2869 1 -59.568 1.07415 448.079 -59.568 1.07415 448.079
2605 1 -44.6426 1.10786 441.142 -44.6426 1.10786 441.142
2602 1 -46.3759 1.0991 443.016 -46.3759 1.0991 443.016
2889 1 -48.1091 1.09034 444.891 -48.1091 1.09034 444.891
2886 1 -49.8422 1.0816 446.766 -49.8422 1.0816 446.766
3170 1 -51.5753 1.0729 448.64 -51.5753 1.0729 448.64
2899 1 -41.8495 1.08015 447.327 -41.8495 1.08015 447.327
3184 1 -43.5825 1.07138 449.201 -43.5825 1.07138 449.201
2580 1 -59.1196 4.05549 441.456 -59.1196 4.05549 441.456
2577 1 -60.8528 4.04665 443.331 -60.8528 4.04665 443.331
2864 1 -62.5858 4.03781 445.205 -62.5858 4.03781 445.205
2862 1 -63.4523 1.81965 446.143 -63.4523 1.81965 446.143
2594 1 -51.1267 4.05457 442.017 -51.1267 4.05457 442.017
2590 1 -52.8599 4.0458 443.892 -52.8599 4.0458 443.892
2878 1 -54.593 4.03708 445.767 -54.593 4.03708 445.767
2875 1 -56.3261 4.02839 447.641 -56.3261 4.02839 447.641
3159 1 -58.0591 4.01974 449.516 -58.0591 4.01974 449.516
2611 1 -41.4005 4.0619 440.704 -41.4005 4.0619 440.704
2608 1 -43.1339 4.05317 442.579 -43.1339 4.05317 442.579
2894 1 -44.8671 4.04441 444.453 -44.8671 4.04441 444.453
2891 1 -46.6002 4.03565 446.328 -46.6002 4.03565 446.328
2888 1 -48.3333 4.02691 448.202 -48.3333 4.02691 448.202
2904 1 -38.6077 4.03425 446.889 -38.6077 4.03425 446.889
2621 1 -35.7829 3.32438 440.767 -35.7829 3.32438 440.767
2617 1 -38.1583 2.58845 440.267 -38.1583 2.58845 440.267
2614 1 -39.8918 2.57977 442.141 -39.8918 2.57977 442.141
2908 1 -36.2325 0.34281 447.389 -36.2325 0.34281 447.389
2619 1 -36.6497 1.10633 441.704 -36.6497 1.10633 441.704
2906 1 -37.099 2.55215 448.326 -37.099 2.55215 448.326
2905 1 -37.7411 1.8249 445.952 -37.7411 1.8249 445.952
2620 1 -36.0078 1.83363 444.078 -36.0078 1.83363 444.078
3190 1 -40.3408 4.02548 448.764 -40.3408 4.02548 448.764
2902 1 -39.4742 1.81614 447.826 -39.4742 1.81614 447.826
2903 1 -39.2498 3.30701 444.515 -39.2498 3.30701 444.515
2615 1 -39.0251 0.370391 441.204 -39.0251 0.370391 441.204
2909 1 -35.3659 2.56091 446.452 -35.3659 2.56091 446.452
14 1 -54.689 4.26938 399.976 -54.689 4.26938 399.976
7 1 -59.3721 2.76731 399.067 -59.3721 2.76731 399.067
25 1 -46.6884 4.26077 400.45 -46.6884 4.26077 400.45
38 1 -38.6837 4.21727 400.965 -38.6837 4.21727 400.965
23 1 -48.4244 4.23592 402.318 -48.4244 4.23592 402.318
287 1 -51.8906 4.21085 406.036 -51.8906 4.21085 406.036
878 1 -42.8399 4.17815 414.657 -42.8399 4.17815 414.657
579 1 -49.1024 4.18966 412.221 -49.1024 4.18966 412.221
585 1 -45.6308 4.20608 408.476 -45.6308 4.20608 408.476
290 1 -50.1595 4.22028 404.163 -50.1595 4.22028 404.163
11 1 -56.4109 4.21811 401.756 -56.4109 4.21811 401.756
595 1 -39.3694 4.19426 410.911 -39.3694 4.19426 410.911
1134 1 -62.2989 4.16403 417.277 -62.2989 4.16403 417.277
283 1 -53.6282 4.20578 407.908 -53.6282 4.20578 407.908
582 1 -47.3663 4.19757 410.349 -47.3663 4.19757 410.349
276 1 -58.1576 4.22925 403.609 -58.1576 4.22925 403.609
569 1 -55.3659 4.20068 409.778 -55.3659 4.20068 409.778
847 1 -60.5656 4.17317 415.402 -60.5656 4.17317 415.402
556 1 -63.3579 4.20049 409.215 -63.3579 4.20049 409.215
272 1 -59.8999 4.22688 405.461 -59.8999 4.22688 405.461
3 1 -61.1948 2.7798 400.75 -61.1948 2.7798 400.75
35 1 -40.4213 4.23196 402.844 -40.4213 4.23196 402.844
598 1 -37.6344 4.20262 409.037 -37.6344 4.20262 409.037
850 1 -58.8326 4.18262 413.527 -58.8326 4.18262 413.527