ITEM: TIMESTEP
0
ITEM: NUMBER OF ATOMS
4630
ITEM: BOX BOUNDS xy xz yz pp pp pp
-5.5240988501799997e+01 9.8260020350000005e+01 0.0000000000000000e+00
0.0000000000000000e+00 4.4274527100805940e+00 0.0000000000000000e+00
3.8000000000000000e+02 5.0000000000000000e+02 0.0000000000000000e+00
ITEM: ATOMS id type x y z xu yu zu
27 1 -41.6703 2.6391 397.741 -41.6703 2.6391 397.741
36 1 -36.2237 1.89225 397.303 -36.2237 1.89225 397.303
31 1 -39.2722 3.31574 397.964 -39.2722 3.31574 397.964
22 1 -44.7283 4.06896 398.438 -44.7283 4.06896 398.438
20 1 -45.461 1.85252 399.381 -45.461 1.85252 399.381
40 1 -33.8279 2.57209 397.532 -33.8279 2.57209 397.532
34 1 -36.9407 4.09273 398.233 -36.9407 4.09273 398.233
17 1 -47.7954 1.0921 399.122 -47.7954 1.0921 399.122
9 1 -53.1854 1.77037 399.533 -53.1854 1.77037 399.533
43 1 -31.4976 3.35028 397.805 -31.4976 3.35028 397.805
12 1 -50.8906 2.61297 399.833 -50.8906 2.61297 399.833
29 1 -40.0258 1.08964 398.908 -40.0258 1.08964 398.908
853 1 -51.2058 3.05589 414.387 -51.2058 3.05589 414.387
873 1 -40.3732 1.58647 413.494 -40.3732 1.58647 413.494
865 1 -44.2038 0.818657 415.262 -44.2038 0.818657 415.262
1174 1 -31.7706 2.26954 415.707 -31.7706 2.26954 415.707
883 1 -34.9499 0.849004 413.055 -34.9499 0.849004 413.055
863 1 -45.7923 2.32266 413.939 -45.7923 2.32266 413.939
315 1 -31.4021 1.7924 401.155 -31.4021 1.7924 401.155
307 1 -35.9917 3.23269 403.937 -35.9917 3.23269 403.937
1150 1 -45.6984 0.77855 417.324 -45.6984 0.77855 417.324
855 1 -49.6189 1.55209 415.71 -49.6189 1.55209 415.71
310 1 -34.4966 3.26509 401.885 -34.4966 3.26509 401.885
871 1 -41.1206 3.7811 414.524 -41.1206 3.7811 414.524
16 1 -48.5358 3.2944 400.071 -48.5358 3.2944 400.071
309 1 -34.3959 1.72986 405.26 -34.3959 1.72986 405.26
1156 1 -42.6159 3.74212 416.585 -42.6159 3.74212 416.585
867 1 -43.4568 3.05201 414.231 -43.4568 3.05201 414.231
1159 1 -40.2801 0.0441457 416.878 -40.2801 4.4716 416.878
1168 1 -34.8578 3.73555 416.438 -34.8578 3.73555 416.438
1170 1 -34.1089 1.54064 415.409 -34.1089 1.54064 415.409
594 1 -35.1433 3.92685 406.289 -35.1433 3.92685 406.289
37 1 -35.3404 2.56194 399.545 -35.3404 2.56194 399.545
851 1 -51.9515 0.821543 415.419 -51.9515 0.821543 415.419
857 1 -48.8727 3.78629 414.679 -48.8727 3.78629 414.679
592 1 -35.8905 1.69588 407.317 -35.8905 1.69588 407.317
849 1 -52.6976 3.01436 416.451 -52.6976 3.01436 416.451
877 1 -38.036 2.31532 413.789 -38.036 2.31532 413.789
1143 1 -50.3654 3.74509 416.742 -50.3654 3.74509 416.742
1140 1 -51.859 3.70285 418.806 -51.859 3.70285 418.806
845 1 -55.0291 2.28379 416.161 -55.0291 2.28379 416.161
875 1 -38.7839 0.0826689 414.818 -38.7839 4.51012 414.818
886 1 -33.4535 0.885474 410.998 -33.4535 0.885474 410.998
891 1 -30.3648 3.84538 410.268 -30.3648 3.84538 410.268
39 1 -33.754 1.06401 400.852 -33.754 1.06401 400.852
1177 1 -30.1818 0.766105 417.033 -30.1818 0.766105 417.033
1167 1 -35.6069 1.50283 417.467 -35.6069 1.50283 417.467
8 1 -53.9526 4.03625 400.59 -53.9526 4.03625 400.59
869 1 -41.8682 1.54802 415.555 -41.8682 1.54802 415.555
1136 1 -54.1905 2.97161 418.516 -54.1905 2.97161 418.516
1162 1 -38.6925 2.96788 418.202 -38.6925 2.96788 418.202
15 1 -49.2856 1.07899 401.145 -49.2856 1.07899 401.145
280 1 -50.7704 1.04928 403.199 -50.7704 1.04928 403.199
277 1 -52.2592 1.02501 405.255 -52.2592 1.02501 405.255
273 1 -53.7404 0.987348 407.32 -53.7404 0.987348 407.32
560 1 -55.2254 0.948798 409.386 -55.2254 0.948798 409.386
26 1 -41.5239 1.07939 400.978 -41.5239 1.07939 400.978
294 1 -43.016 1.05121 403.049 -43.016 1.05121 403.049
291 1 -44.5051 1.01539 405.109 -44.5051 1.01539 405.109
576 1 -45.9929 0.978152 407.169 -45.9929 0.978152 407.169
573 1 -47.4815 0.941048 409.23 -47.4815 0.941048 409.23
570 1 -48.9704 0.902418 411.292 -48.9704 0.902418 411.292
854 1 -50.4603 0.862489 413.355 -50.4603 0.862489 413.355
305 1 -36.738 1.00246 404.963 -36.738 1.00246 404.963
589 1 -38.2308 0.967873 407.021 -38.2308 0.967873 407.021
586 1 -39.7235 0.93216 409.08 -39.7235 0.93216 409.08
872 1 -41.2165 0.895421 411.14 -41.2165 0.895421 411.14
599 1 -31.9569 0.920943 408.941 -31.9569 0.920943 408.941
1152 1 -44.951 3.01246 416.293 -44.951 3.01246 416.293
19 1 -46.2155 4.03838 400.416 -46.2155 4.03838 400.416
286 1 -47.6967 4.00551 402.448 -47.6967 4.00551 402.448
282 1 -49.1772 3.97504 404.514 -49.1772 3.97504 404.514
279 1 -50.6644 3.94537 406.577 -50.6644 3.94537 406.577
565 1 -52.1493 3.90918 408.642 -52.1493 3.90918 408.642
563 1 -53.6362 3.87064 410.708 -53.6362 3.87064 410.708
846 1 -55.1249 3.83062 412.773 -55.1249 3.83062 412.773
32 1 -38.4379 4.03939 400.272 -38.4379 4.03939 400.272
300 1 -39.9311 4.00848 402.319 -39.9311 4.00848 402.319
297 1 -41.4209 3.97466 404.375 -41.4209 3.97466 404.375
293 1 -42.9103 3.93968 406.433 -42.9103 3.93968 406.433
578 1 -44.4001 3.90306 408.493 -44.4001 3.90306 408.493
575 1 -45.8905 3.86547 410.554 -45.8905 3.86547 410.554
860 1 -47.3812 3.8265 412.616 -47.3812 3.8265 412.616
591 1 -36.6376 3.892 408.346 -36.6376 3.892 408.346
588 1 -38.1316 3.85601 410.405 -38.1316 3.85601 410.405
874 1 -39.6259 3.81904 412.464 -39.6259 3.81904 412.464
10 1 -52.3684 2.54422 401.88 -52.3684 2.54422 401.88
274 1 -53.8586 2.53477 403.927 -53.8586 2.53477 403.927
271 1 -55.3318 2.49334 405.998 -55.3318 2.49334 405.998
24 1 -43.1404 2.59077 399.71 -43.1404 2.59077 399.71
21 1 -44.6226 2.55347 401.733 -44.6226 2.55347 401.733
288 1 -46.1017 2.51673 403.787 -46.1017 2.51673 403.787
285 1 -47.5858 2.47871 405.845 -47.5858 2.47871 405.845
571 1 -49.0729 2.4433 407.905 -49.0729 2.4433 407.905
568 1 -50.5597 2.40557 409.967 -50.5597 2.40557 409.967
852 1 -52.0481 2.36624 412.032 -52.0481 2.36624 412.032
848 1 -53.538 2.32576 414.096 -53.538 2.32576 414.096
306 1 -36.8409 2.53536 401.584 -36.8409 2.53536 401.584
302 1 -38.3341 2.50456 403.637 -38.3341 2.50456 403.637
299 1 -39.8251 2.47087 405.696 -39.8251 2.47087 405.696
583 1 -41.3163 2.43577 407.756 -41.3163 2.43577 407.756
581 1 -42.8079 2.39929 409.817 -42.8079 2.39929 409.817
866 1 -44.2999 2.36164 411.877 -44.2999 2.36164 411.877
880 1 -36.5405 2.3525 411.73 -36.5405 2.3525 411.73
312 1 -32.9003 1.76226 403.205 -32.9003 1.76226 403.205
13 1 -50.0218 3.27396 402.15 -50.0218 3.27396 402.15
278 1 -51.5149 3.25174 404.219 -51.5149 3.25174 404.219
275 1 -52.9991 3.22035 406.285 -52.9991 3.22035 406.285
562 1 -54.4822 3.18179 408.352 -54.4822 3.18179 408.352
1166 1 -36.356 3.69738 418.497 -36.356 3.69738 418.497
889 1 -31.1137 1.6139 411.296 -31.1137 1.6139 411.296
28 1 -40.7799 3.30759 399.98 -40.7799 3.30759 399.98
296 1 -42.2737 3.27986 402.023 -42.2737 3.27986 402.023
292 1 -43.7616 3.24736 404.08 -43.7616 3.24736 404.08
289 1 -45.2488 3.21069 406.14 -45.2488 3.21069 406.14
574 1 -46.7371 3.17355 408.2 -46.7371 3.17355 408.2
572 1 -48.2259 3.13572 410.261 -48.2259 3.13572 410.261
856 1 -49.7151 3.09632 412.323 -49.7151 3.09632 412.323
303 1 -37.4848 3.1989 405.992 -37.4848 3.1989 405.992
587 1 -38.9773 3.16381 408.051 -38.9773 3.16381 408.051
584 1 -40.47 3.12763 410.11 -40.47 3.12763 410.11
870 1 -41.9632 3.09038 412.17 -41.9632 3.09038 412.17
6 1 -54.7164 1.84264 401.558 -54.7164 1.84264 401.558
890 1 -30.272 2.30633 413.65 -30.272 2.30633 413.65
18 1 -46.9508 1.80915 401.431 -46.9508 1.80915 401.431
284 1 -48.4335 1.77788 403.488 -48.4335 1.77788 403.488
281 1 -49.921 1.74767 405.548 -49.921 1.74767 405.548
567 1 -51.4069 1.71433 407.61 -51.4069 1.71433 407.61
564 1 -52.8925 1.67635 409.676 -52.8925 1.67635 409.676
561 1 -54.3804 1.63715 411.741 -54.3804 1.63715 411.741
33 1 -37.7034 1.84249 399.267 -37.7034 1.84249 399.267
30 1 -39.1923 1.80754 401.284 -39.1923 1.80754 401.284
298 1 -40.6767 1.77728 403.342 -40.6767 1.77728 403.342
295 1 -42.1656 1.74365 405.403 -42.1656 1.74365 405.403
580 1 -43.6551 1.70771 407.463 -43.6551 1.70771 407.463
577 1 -45.1453 1.67064 409.523 -45.1453 1.67064 409.523
862 1 -46.6358 1.63242 411.585 -46.6358 1.63242 411.585
590 1 -37.3846 1.66043 409.375 -37.3846 1.66043 409.375
876 1 -38.8787 1.62393 411.434 -38.8787 1.62393 411.434
1163 1 -37.9437 0.773531 417.172 -37.9437 0.773531 417.172
1153 1 -44.1117 3.70211 418.647 -44.1117 3.70211 418.647
311 1 -33.6475 3.96031 404.233 -33.6475 3.96031 404.233
42 1 -32.2601 1.09982 398.838 -32.2601 1.09982 398.838
1135 1 -54.9374 0.736084 419.549 -54.9374 0.736084 419.549
1171 1 -33.2695 2.23204 417.764 -33.2695 2.23204 417.764
1139 1 -52.6062 1.46761 419.838 -52.6062 1.46761 419.838
601 1 -31.2084 3.15196 407.913 -31.2084 3.15196 407.913
313 1 -32.1488 3.99277 402.177 -32.1488 3.99277 402.177
858 1 -48.1268 1.59279 413.647 -48.1268 1.59279 413.647
868 1 -42.7099 0.857628 413.201 -42.7099 0.857628 413.201
1147 1 -48.0323 0.048258 417.033 -48.0323 4.47571 417.033
593 1 -35.0452 2.38876 409.672 -35.0452 2.38876 409.672
308 1 -35.2444 1.03478 402.906 -35.2444 1.03478 402.906
861 1 -46.5387 0.0889805 414.97 -46.5387 4.51643 414.97
1158 1 -41.0284 2.23826 417.909 -41.0284 2.23826 417.909
884 1 -34.2017 3.08108 412.026 -34.2017 3.08108 412.026
881 1 -35.6982 3.04417 414.084 -35.6982 3.04417 414.084
885 1 -33.36 3.77299 414.381 -33.36 3.77299 414.381
859 1 -47.2854 2.28247 416.002 -47.2854 2.28247 416.002
596 1 -33.5498 2.42392 407.615 -33.5498 2.42392 407.615
879 1 -36.4466 0.811674 415.113 -36.4466 0.811674 415.113
1172 1 -32.52 0.0371451 416.735 -32.52 4.4646 416.735
1154 1 -43.3637 1.50851 417.616 -43.3637 1.50851 417.616
887 1 -32.6112 1.57769 413.352 -32.6112 1.57769 413.352
597 1 -32.7052 3.11707 409.969 -32.7052 3.11707 409.969
1161 1 -39.5319 2.27725 415.848 -39.5319 2.27725 415.848
1138 1 -53.4439 0.779408 417.484 -53.4439 0.779408 417.484
1149 1 -46.4459 2.97184 418.356 -46.4459 2.97184 418.356
41 1 -32.9979 3.2956 399.842 -32.9979 3.2956 399.842
888 1 -31.8624 3.80963 412.324 -31.8624 3.80963 412.324
1165 1 -37.1951 3.00643 416.143 -37.1951 3.00643 416.143
1141 1 -51.1121 1.51037 417.774 -51.1121 1.51037 417.774
1145 1 -48.7794 2.24125 418.065 -48.7794 2.24125 418.065
600 1 -32.0538 2.45777 405.56 -32.0538 2.45777 405.56
1148 1 -47.1937 0.737424 419.387 -47.1937 0.737424 419.387
882 1 -35.7928 0.157024 410.701 -35.7928 4.58448 410.701
1157 1 -41.7768 0.00469335 418.939 -41.7768 4.43215 418.939
1144 1 -49.5267 0.0065345 419.096 -49.5267 4.43399 419.096
602 1 -30.4597 0.955238 406.886 -30.4597 0.955238 406.886
1755 1 -29.1758 2.80269 426.15 -29.1758 2.80269 426.15
1460 1 -33.9323 2.88492 422.175 -33.9323 2.88492 422.175
2308 1 -42.1089 3.3298 436.888 -42.1089 3.3298 436.888
2316 1 -37.525 1.91356 434.086 -37.525 1.91356 434.086
2312 1 -39.7776 4.06374 437.178 -39.7776 4.06374 437.178
1464 1 -31.5956 3.61456 422.471 -31.5956 3.61456 422.471
1461 1 -33.182 0.690464 421.146 -33.182 0.690464 421.146
2039 1 -31.3534 3.41743 432.615 -31.3534 3.41743 432.615
2613 1 -32.7819 1.83625 438.053 -32.7819 1.83625 438.053
1467 1 -29.2584 -0.0834661 422.769 -29.2584 4.34399 422.769
2603 1 -38.1968 2.56235 438.499 -38.1968 2.56235 438.499
1443 1 -43.2741 -0.0356779 421.001 -43.2741 4.39177 421.001
1748 1 -33.0974 3.57604 424.529 -33.0974 3.57604 424.529
2023 1 -39.8576 1.1807 433.794 -39.8576 1.1807 433.794
2310 1 -40.5278 1.82828 438.209 -40.5278 1.82828 438.209
1151 1 -44.8599 1.46801 419.678 -44.8599 1.46801 419.678
2303 1 -45.1894 0.359728 437.63 -45.1894 0.359728 437.63
2299 1 -47.5203 4.05295 437.341 -47.5203 4.05295 437.341
2033 1 -34.44 0.452534 433.349 -34.44 0.452534 433.349
1433 1 -48.6897 0.695333 421.45 -48.6897 0.695333 421.45
1430 1 -50.1865 0.652342 423.514 -50.1865 0.652342 423.514
1426 1 -51.6839 0.608575 425.578 -51.6839 0.608575 425.578
1713 1 -53.182 0.564215 427.642 -53.182 0.564215 427.642
1710 1 -54.6805 0.519478 429.707 -54.6805 0.519478 429.707
2330 1 -28.9429 2.60756 436.291 -28.9429 2.60756 436.291
1160 1 -39.4413 0.734564 419.232 -39.4413 0.734564 419.232
1447 1 -40.9395 0.694758 421.293 -40.9395 0.694758 421.293
1444 1 -42.4381 0.654106 423.354 -42.4381 0.654106 423.354
1730 1 -43.9372 0.612598 425.415 -43.9372 0.612598 425.415
1727 1 -45.4366 0.570239 427.478 -45.4366 0.570239 427.478
1724 1 -46.9361 0.52707 429.541 -46.9361 0.52707 429.541
2008 1 -48.4356 0.48318 431.604 -48.4356 0.48318 431.604
2006 1 -49.9347 0.438709 433.668 -49.9347 0.438709 433.668
1458 1 -34.6828 0.651781 423.204 -34.6828 0.651781 423.204
1743 1 -36.184 0.61248 425.262 -36.184 0.61248 425.262
1740 1 -37.6855 0.57249 427.322 -37.6855 0.57249 427.322
2026 1 -39.1872 0.531727 429.381 -39.1872 0.531727 429.381
2022 1 -40.6888 0.490101 431.442 -40.6888 0.490101 431.442
2019 1 -42.1899 0.44755 433.504 -42.1899 0.44755 433.504
2309 1 -41.3588 1.13787 435.856 -41.3588 1.13787 435.856
1137 1 -53.3537 3.65959 420.871 -53.3537 3.65959 420.871
1421 1 -54.8494 3.61546 422.936 -54.8494 3.61546 422.936
1439 1 -45.6082 3.66113 420.709 -45.6082 3.66113 420.709
1435 1 -47.1053 3.61921 422.772 -47.1053 3.61921 422.772
1432 1 -48.603 3.57642 424.835 -48.603 3.57642 424.835
1719 1 -50.1012 3.53285 426.899 -50.1012 3.53285 426.899
1716 1 -51.5998 3.48866 428.963 -51.5998 3.48866 428.963
2001 1 -53.0986 3.44403 431.027 -53.0986 3.44403 431.027
1998 1 -54.5975 3.39917 433.092 -54.5975 3.39917 433.092
2323 1 -32.8583 3.37805 434.672 -32.8583 3.37805 434.672
1453 1 -37.8547 3.65847 420.556 -37.8547 3.65847 420.556
1450 1 -39.354 3.6188 422.616 -39.354 3.6188 422.616
1446 1 -40.8536 3.57834 424.676 -40.8536 3.57834 424.676
1732 1 -42.3536 3.53706 426.737 -42.3536 3.53706 426.737
1729 1 -43.8537 3.49493 428.799 -43.8537 3.49493 428.799
2014 1 -45.3538 3.45196 430.862 -45.3538 3.45196 430.862
2011 1 -46.8536 3.40821 432.925 -46.8536 3.40821 432.925
1745 1 -34.5995 3.53697 426.586 -34.5995 3.53697 426.586
1742 1 -36.102 3.49727 428.645 -36.102 3.49727 428.645
2028 1 -37.6045 3.45681 430.704 -37.6045 3.45681 430.704
2025 1 -39.1067 3.41546 432.764 -39.1067 3.41546 432.764
1427 1 -51.77 2.15588 422.192 -51.77 2.15588 422.192
1424 1 -53.2666 2.11193 424.257 -53.2666 2.11193 424.257
1711 1 -54.7641 2.06739 426.321 -54.7641 2.06739 426.321
2322 1 -33.6105 1.14428 435.701 -33.6105 1.14428 435.701
1750 1 -31.5123 2.07292 425.853 -31.5123 2.07292 425.853
1155 1 -42.5254 2.19835 419.97 -42.5254 2.19835 419.97
1441 1 -44.023 2.15752 422.031 -44.023 2.15752 422.031
1438 1 -45.5211 2.11581 424.094 -45.5211 2.11581 424.094
1725 1 -47.0197 2.07323 426.156 -47.0197 2.07323 426.156
1722 1 -48.5186 2.02986 428.22 -48.5186 2.02986 428.22
1718 1 -50.0176 1.98582 430.284 -50.0176 1.98582 430.284
2003 1 -51.5167 1.94128 432.348 -51.5167 1.94128 432.348
2000 1 -53.0155 1.89643 434.412 -53.0155 1.89643 434.412
1459 1 -34.7688 2.19388 419.821 -34.7688 2.19388 419.821
1455 1 -36.2686 2.15507 421.88 -36.2686 2.15507 421.88
1452 1 -37.7688 2.11557 423.939 -37.7688 2.11557 423.939
1737 1 -39.2694 2.07533 425.999 -39.2694 2.07533 425.999
1735 1 -40.7703 2.03429 428.059 -40.7703 2.03429 428.059
2020 1 -42.2711 1.9924 430.121 -42.2711 1.9924 430.121
2017 1 -43.7717 1.94964 432.183 -43.7717 1.94964 432.183
2034 1 -34.5188 1.99473 429.968 -34.5188 1.99473 429.968
2031 1 -36.0221 1.9546 432.026 -36.0221 1.9546 432.026
2029 1 -36.7736 4.14793 433.056 -36.7736 4.14793 433.056
1146 1 -47.9416 2.93022 420.419 -47.9416 2.93022 420.419
1431 1 -49.438 2.88767 422.482 -49.438 2.88767 422.482
1428 1 -50.9351 2.84427 424.546 -50.9351 2.84427 424.546
1715 1 -52.4329 2.80018 426.61 -52.4329 2.80018 426.61
1712 1 -53.9312 2.75561 428.674 -53.9312 2.75561 428.674
1747 1 -33.0154 2.03412 427.91 -33.0154 2.03412 427.91
1449 1 -40.1903 2.92849 420.262 -40.1903 2.92849 420.262
1445 1 -41.6888 2.88827 422.323 -41.6888 2.88827 422.323
1442 1 -43.1876 2.84719 424.385 -43.1876 2.84719 424.385
1728 1 -44.6869 2.80525 426.447 -44.6869 2.80525 426.447
1726 1 -46.1864 2.76248 428.509 -46.1864 2.76248 428.509
2010 1 -47.6859 2.71893 430.572 -47.6859 2.71893 430.572
2007 1 -49.1852 2.67473 432.636 -49.1852 2.67473 432.636
1456 1 -35.4333 2.84594 424.233 -35.4333 2.84594 424.233
1741 1 -36.9347 2.8063 426.292 -36.9347 2.8063 426.292
1738 1 -38.4364 2.76594 428.351 -38.4364 2.76594 428.351
2024 1 -39.938 2.72475 430.412 -39.938 2.72475 430.412
2021 1 -41.4394 2.68267 432.473 -41.4394 2.68267 432.473
2035 1 -33.688 2.68625 432.32 -33.688 2.68625 432.32
1754 1 -30.0096 2.11125 423.797 -30.0096 2.11125 423.797
1423 1 -54.1014 1.42389 421.903 -54.1014 1.42389 421.903
2044 1 -28.2653 1.95345 431.884 -28.2653 1.95345 431.884
1437 1 -46.3567 1.42656 421.741 -46.3567 1.42656 421.741
1434 1 -47.8541 1.3842 423.804 -47.8541 1.3842 423.804
1721 1 -49.3521 1.341 425.867 -49.3521 1.341 425.867
1717 1 -50.8505 1.29709 427.931 -50.8505 1.29709 427.931
1714 1 -52.3492 1.25266 429.995 -52.3492 1.25266 429.995
1999 1 -53.8481 1.20789 432.059 -53.8481 1.20789 432.059
1164 1 -37.1053 1.4643 419.526 -37.1053 1.4643 419.526
1451 1 -38.6043 1.42501 421.586 -38.6043 1.42501 421.586
1448 1 -40.1037 1.38495 423.646 -40.1037 1.38495 423.646
1734 1 -41.6036 1.34408 425.707 -41.6036 1.34408 425.707
1731 1 -43.1037 1.30238 427.768 -43.1037 1.30238 427.768
2016 1 -44.6038 1.25982 429.83 -44.6038 1.25982 429.83
2012 1 -46.1038 1.21645 431.893 -46.1038 1.21645 431.893
2009 1 -47.6033 1.17235 433.957 -47.6033 1.17235 433.957
1746 1 -33.8484 1.34286 425.557 -33.8484 1.34286 425.557
1744 1 -35.3507 1.30348 427.615 -35.3507 1.30348 427.615
2030 1 -36.8532 1.26341 429.674 -36.8532 1.26341 429.674
2027 1 -38.3557 1.22252 431.734 -38.3557 1.22252 431.734
2325 1 -32.1059 1.18412 433.643 -32.1059 1.18412 433.643
1749 1 -32.2638 4.26732 426.882 -32.2638 4.26732 426.882
1425 1 -52.5182 4.34771 423.225 -52.5182 4.34771 423.225
1736 1 -40.0198 4.26864 427.029 -40.0198 4.26864 427.029
1142 1 -50.2743 2.19903 420.128 -50.2743 2.19903 420.128
1720 1 -49.2681 4.22164 429.252 -49.2681 4.22164 429.252
2005 1 -50.7672 4.17733 431.316 -50.7672 4.17733 431.316
2002 1 -52.2661 4.13261 433.38 -52.2661 4.13261 433.38
1169 1 -34.0191 -0.000683955 418.792 -34.0191 4.42677 418.792
1723 1 -47.7691 4.26536 427.188 -47.7691 4.26536 427.188
1440 1 -44.772 4.3505 423.062 -44.772 4.3505 423.062
1733 1 -41.5207 4.22718 429.09 -41.5207 4.22718 429.09
2018 1 -43.0215 4.18486 431.152 -43.0215 4.18486 431.152
2015 1 -44.5219 4.14166 433.214 -44.5219 4.14166 433.214
2036 1 -33.7671 4.22824 428.939 -33.7671 4.22824 428.939
2032 1 -35.2704 4.18849 430.997 -35.2704 4.18849 430.997
2326 1 -31.277 1.87622 435.995 -31.277 1.87622 435.995
1752 1 -30.7609 4.30587 424.825 -30.7609 4.30587 424.825
1457 1 -35.5186 -0.0391663 420.851 -35.5186 4.38829 420.851
2043 1 -29.0958 1.26153 429.531 -29.0958 1.26153 429.531
2286 1 -54.5139 1.85148 436.476 -54.5139 1.85148 436.476
2319 1 -35.1143 1.10335 437.76 -35.1143 1.10335 437.76
1436 1 -46.2704 4.30835 425.125 -46.2704 4.30835 425.125
1422 1 -54.0153 4.30344 425.289 -54.0153 4.30344 425.289
1173 1 -31.6817 0.728569 419.089 -31.6817 0.728569 419.089
2293 1 -50.6001 1.08259 438.085 -50.6001 1.08259 438.085
2289 1 -52.9314 0.348796 437.797 -52.9314 0.348796 437.797
2295 1 -49.0178 4.00777 439.406 -49.0178 4.00777 439.406
1465 1 -30.8449 1.41991 421.443 -30.8449 1.41991 421.443
2315 1 -37.4461 0.369999 437.468 -37.4461 0.369999 437.468
2331 1 -29.0183 4.14811 432.911 -29.0183 4.14811 432.911
2297 1 -48.2692 1.81668 438.374 -48.2692 1.81668 438.374
2324 1 -32.0296 4.07011 437.024 -32.0296 4.07011 437.024
2306 1 -42.8587 1.09403 437.919 -42.8587 1.09403 437.919
2285 1 -54.4286 0.303818 439.862 -54.4286 0.303818 439.862
1462 1 -32.3464 1.38164 423.5 -32.3464 1.38164 423.5
1751 1 -30.6796 2.76439 428.206 -30.6796 2.76439 428.206
2329 1 -29.7713 1.91518 433.939 -29.7713 1.91518 433.939
2042 1 -29.8483 3.45611 430.559 -29.8483 3.45611 430.559
2041 1 -30.6009 1.22312 431.587 -30.6009 1.22312 431.587
2593 1 -43.608 3.28549 438.951 -43.608 3.28549 438.951
2328 1 -29.6961 0.374475 437.319 -29.6961 0.374475 437.319
2301 1 -45.9385 2.55101 438.662 -45.9385 2.55101 438.662
1466 1 -30.0943 3.65259 420.415 -30.0943 3.65259 420.415
2298 1 -48.3528 3.36379 434.989 -48.3528 3.36379 434.989
2321 1 -34.3626 3.3377 436.73 -34.3626 3.3377 436.73
2313 1 -39.0271 1.87148 436.147 -39.0271 1.87148 436.147
2294 1 -49.8513 3.31888 437.053 -49.8513 3.31888 437.053
2304 1 -44.44 2.59572 436.598 -44.44 2.59572 436.598
2300 1 -46.771 1.86164 436.309 -46.771 1.86164 436.309
2290 1 -52.1825 2.58505 436.765 -52.1825 2.58505 436.765
2318 1 -35.9436 0.411828 435.408 -35.9436 0.411828 435.408
2327 1 -30.5242 4.10953 434.967 -30.5242 4.10953 434.967
2004 1 -50.6841 2.63004 434.7 -50.6841 2.63004 434.7
2013 1 -45.2718 1.90602 434.246 -45.2718 1.90602 434.246
2288 1 -53.7648 4.08768 435.444 -53.7648 4.08768 435.444
2037 1 -32.9359 0.492308 431.291 -32.9359 0.492308 431.291
1739 1 -38.5191 4.30927 424.969 -38.5191 4.30927 424.969
1753 1 -29.9277 0.569865 427.178 -29.9277 0.569865 427.178
2307 1 -42.9402 2.63965 434.535 -42.9402 2.63965 434.535
2314 1 -38.2761 4.10638 435.116 -38.2761 4.10638 435.116
2040 1 -31.4317 0.531356 429.234 -31.4317 0.531356 429.234
2320 1 -35.1919 2.64604 434.378 -35.1919 2.64604 434.378
2292 1 -51.4334 0.39384 435.732 -51.4334 0.39384 435.732
2311 1 -40.6083 3.37314 434.825 -40.6083 3.37314 434.825
2302 1 -46.0215 4.09765 435.277 -46.0215 4.09765 435.277
2296 1 -49.1021 1.12766 436.021 -49.1021 1.12766 436.021
1463 1 -32.4318 2.92331 420.118 -32.4318 2.92331 420.118
2287 1 -53.6801 2.54001 438.829 -53.6801 2.54001 438.829
2291 1 -51.3488 3.27371 439.118 -51.3488 3.27371 439.118
2317 1 -36.695 2.60479 436.438 -36.695 2.60479 436.438
2038 1 -32.1838 2.72564 430.263 -32.1838 2.72564 430.263
2305 1 -43.6902 0.404069 435.567 -43.6902 0.404069 435.567
2332 1 -28.1895 0.412985 435.263 -28.1895 0.412985 435.263
1468 1 -29.3438 1.4577 419.387 -29.3438 1.4577 419.387
1454 1 -37.0186 4.34913 422.909 -37.0186 4.34913 422.909
1429 1 -51.022 4.39129 421.16 -51.022 4.39129 421.16
1175 1 -30.9317 2.96114 418.061 -30.9317 2.96114 418.061
2616 1 -30.3746 1.02731 441.727 -30.3746 1.02731 441.727
2901 1 -31.8778 0.985732 443.786 -31.8778 0.985732 443.786
2907 1 -28.7957 3.95383 443.05 -28.7957 3.95383 443.05
3194 1 -29.472 0.176629 447.461 -29.472 0.176629 447.461
2587 1 -46.6873 0.314694 439.695 -46.6873 0.314694 439.695
2597 1 -41.2776 4.01999 439.24 -41.2776 4.01999 439.24
2584 1 -48.1835 0.269225 441.76 -48.1835 0.269225 441.76
2581 1 -49.6782 0.223647 443.825 -49.6782 0.223647 443.825
2868 1 -51.1712 0.178329 445.891 -51.1712 0.178329 445.891
2865 1 -52.6629 0.133638 447.956 -52.6629 0.133638 447.956
2601 1 -38.9471 0.326933 439.53 -38.9471 0.326933 439.53
2598 1 -40.446 0.282647 441.594 -40.446 0.282647 441.594
2885 1 -41.9425 0.237328 443.658 -41.9425 0.237328 443.658
2882 1 -43.4363 0.191333 445.724 -43.4363 0.191333 445.724
2879 1 -44.9276 0.145146 447.791 -44.9276 0.145146 447.791
2612 1 -32.7057 0.293942 441.434 -32.7057 0.293942 441.434
2898 1 -34.2072 0.251256 443.495 -34.2072 0.251256 443.495
2895 1 -35.7054 0.206806 445.558 -35.7054 0.206806 445.558
3180 1 -37.1999 0.160837 447.624 -37.1999 0.160837 447.624
2576 1 -52.8452 3.22855 441.183 -52.8452 3.22855 441.183
2574 1 -54.3406 3.18369 443.247 -54.3406 3.18369 443.247
2589 1 -45.1055 3.24038 441.016 -45.1055 3.24038 441.016
2586 1 -46.601 3.19474 443.081 -46.601 3.19474 443.081
2874 1 -48.0946 3.14896 445.147 -48.0946 3.14896 445.147
2871 1 -49.5864 3.10343 447.213 -49.5864 3.10343 447.213
3155 1 -51.0766 3.05858 449.278 -51.0766 3.05858 449.278
2607 1 -35.8656 3.29614 438.79 -35.8656 3.29614 438.79
2604 1 -37.3667 3.2532 440.852 -37.3667 3.2532 440.852
2600 1 -38.8654 3.20889 442.915 -38.8654 3.20889 442.915
2887 1 -40.3613 3.16341 444.98 -40.3613 3.16341 444.98
2884 1 -41.8542 3.11716 447.046 -41.8542 3.11716 447.046
3168 1 -43.3441 3.07072 449.114 -43.3441 3.07072 449.114
2900 1 -32.6282 3.17792 444.817 -32.6282 3.17792 444.817
2897 1 -34.1261 3.13336 446.88 -34.1261 3.13336 446.88
2582 1 -49.7661 1.77137 440.439 -49.7661 1.77137 440.439
2579 1 -51.2617 1.726 442.504 -51.2617 1.726 442.504
2866 1 -52.756 1.68091 444.569 -52.756 1.68091 444.569
2578 1 -52.0971 1.03739 440.15 -52.0971 1.03739 440.15
2595 1 -42.0269 1.78399 440.272 -42.0269 1.78399 440.272
2592 1 -43.5239 1.73879 442.337 -43.5239 1.73879 442.337
2880 1 -45.0186 1.69299 444.403 -45.0186 1.69299 444.403
2877 1 -46.5111 1.647 446.469 -46.5111 1.647 446.469
2873 1 -48.0015 1.60131 448.535 -48.0015 1.60131 448.535
2609 1 -34.2854 1.79497 440.112 -34.2854 1.79497 440.112
2606 1 -35.7867 1.75216 442.173 -35.7867 1.75216 442.173
2892 1 -37.2852 1.70779 444.237 -37.2852 1.70779 444.237
2890 1 -38.7804 1.66209 446.302 -38.7804 1.66209 446.302
3174 1 -40.2722 1.61553 448.369 -40.2722 1.61553 448.369
2618 1 -29.622 3.26115 440.698 -29.622 3.26115 440.698
2585 1 -47.4356 2.50572 440.727 -47.4356 2.50572 440.727
2583 1 -48.9311 2.46015 442.792 -48.9311 2.46015 442.792
2870 1 -50.4249 2.41466 444.858 -50.4249 2.41466 444.858
2867 1 -51.9172 2.36961 446.923 -51.9172 2.36961 446.923
2863 1 -53.4083 2.32536 448.988 -53.4083 2.32536 448.988
2599 1 -39.6968 2.51866 440.562 -39.6968 2.51866 440.562
2596 1 -41.1946 2.47382 442.626 -41.1946 2.47382 442.626
2883 1 -42.6897 2.42811 444.691 -42.6897 2.42811 444.691
2881 1 -44.1823 2.38196 446.758 -44.1823 2.38196 446.758
3164 1 -45.6723 2.33588 448.825 -45.6723 2.33588 448.825
2610 1 -33.4568 2.48655 442.464 -33.4568 2.48655 442.464
2896 1 -34.9568 2.44297 444.526 -34.9568 2.44297 444.526
2893 1 -36.4531 2.39771 446.591 -36.4531 2.39771 446.591
3178 1 -37.9456 2.35117 448.658 -37.9456 2.35117 448.658
2575 1 -53.593 0.992338 442.215 -53.593 0.992338 442.215
2591 1 -44.357 1.04929 439.983 -44.357 1.04929 439.983
2588 1 -45.8535 1.00388 442.048 -45.8535 1.00388 442.048
2876 1 -47.3481 0.958119 444.114 -47.3481 0.958119 444.114
2872 1 -48.8407 0.912411 446.18 -48.8407 0.912411 446.18
2869 1 -50.3317 0.867172 448.246 -50.3317 0.867172 448.246
2605 1 -36.6164 1.06112 439.821 -36.6164 1.06112 439.821
2602 1 -38.1164 1.01748 441.883 -38.1164 1.01748 441.883
2889 1 -39.6138 0.972548 443.947 -39.6138 0.972548 443.947
2886 1 -41.1081 0.926621 446.013 -41.1081 0.926621 446.013
3170 1 -42.5995 0.880201 448.08 -42.5995 0.880201 448.08
2899 1 -33.3777 0.942155 445.848 -33.3777 0.942155 445.848
3184 1 -34.8734 0.896674 447.913 -34.8734 0.896674 447.913
2580 1 -50.5141 3.9624 441.471 -50.5141 3.9624 441.471
2577 1 -52.009 3.91713 443.536 -52.009 3.91713 443.536
2864 1 -53.5027 3.87229 445.601 -53.5027 3.87229 445.601
2862 1 -54.2491 1.63642 446.634 -54.2491 1.63642 446.634
2594 1 -42.7757 3.97521 441.304 -42.7757 3.97521 441.304
2590 1 -44.2715 3.92966 443.37 -44.2715 3.92966 443.37
2878 1 -45.7651 3.88371 445.436 -45.7651 3.88371 445.436
2875 1 -47.2565 3.83782 447.502 -47.2565 3.83782 447.502
3159 1 -48.746 3.79244 449.568 -48.746 3.79244 449.568
2611 1 -33.5339 4.02952 439.082 -33.5339 4.02952 439.082
2608 1 -35.0364 3.98749 441.142 -35.0364 3.98749 441.142
2894 1 -36.5364 3.94389 443.205 -36.5364 3.94389 443.205
2891 1 -38.0333 3.89881 445.269 -38.0333 3.89881 445.269
2888 1 -39.5267 3.85261 447.335 -39.5267 3.85261 447.335
2904 1 -30.2993 3.91248 445.109 -30.2993 3.91248 445.109
2621 1 -28.1156 3.30026 438.642 -28.1156 3.30026 438.642
2617 1 -30.4491 2.56858 438.347 -30.4491 2.56858 438.347
2614 1 -31.954 2.52836 440.404 -31.954 2.52836 440.404
2908 1 -27.97 0.219015 445.401 -27.97 0.219015 445.401
2619 1 -28.869 1.06714 439.67 -28.869 1.06714 439.67
2906 1 -28.7215 2.41187 446.431 -28.7215 2.41187 446.431
2905 1 -29.5479 1.7197 444.079 -29.5479 1.7197 444.079
2620 1 -28.0429 1.76002 442.021 -28.0429 1.76002 442.021
3190 1 -31.7991 3.86887 447.17 -31.7991 3.86887 447.17
2902 1 -31.0498 1.67723 446.139 -31.0498 1.67723 446.139
2903 1 -31.1266 3.22049 442.756 -31.1266 3.22049 442.756
2615 1 -31.2017 0.334921 439.375 -31.2017 0.334921 439.375
2909 1 -27.2175 2.453 444.373 -27.2175 2.453 444.373
14 1 -50.1917 0.412564 398.899 -50.1917 4.84002 398.899
7 1 -54.7343 3.36108 398.42 -54.7343 3.36108 398.42
25 1 -42.3925 0.411556 398.672 -42.3925 4.83901 398.672
38 1 -34.5795 0.345997 398.476 -34.5795 4.77345 398.476
23 1 -43.8765 0.360251 400.718 -43.8765 4.7877 400.718
287 1 -46.8438 0.282741 404.814 -46.8438 4.71019 404.814
878 1 -37.2882 0.120291 412.759 -37.2882 4.54774 412.759
579 1 -43.5538 0.166912 410.847 -43.5538 4.59436 410.847
585 1 -40.5705 0.239879 406.726 -40.5705 4.66733 406.726
290 1 -45.3618 0.320674 402.759 -45.3618 4.74813 402.759
11 1 -51.6299 0.350459 400.889 -51.6299 4.77791 400.889
595 1 -34.2975 0.192779 408.643 -34.2975 4.62023 408.643
283 1 -48.3295 0.247102 406.874 -48.3295 4.67455 406.874
582 1 -42.062 0.203982 408.786 -42.062 4.63143 408.786
276 1 -53.1217 0.333542 402.912 -53.1217 4.76099 402.912
569 1 -49.8162 0.210921 408.935 -49.8162 4.63837 408.935
847 1 -54.2834 0.0912397 415.129 -54.2834 4.51869 415.129
272 1 -54.5952 0.300315 404.965 -54.5952 4.72777 404.965
35 1 -36.086 0.335152 400.541 -36.086 4.7626 400.541
598 1 -32.8018 0.227353 406.587 -32.8018 4.65481 406.587
850 1 -52.7928 0.132439 413.064 -52.7928 4.55989 413.064
304 1 -37.5849 0.308212 402.607 -37.5849 4.73567 402.607
301 1 -39.0786 0.274629 404.667 -39.0786 4.70208 404.667
314 1 -31.305 0.260677 404.532 -31.305 4.68813 404.532
864 1 -45.046 0.128603 412.908 -45.046 4.55606 412.908
566 1 -51.3036 0.172269 410.999 -51.3036 4.59972 410.999
1176 1 -31.0213 0.074302 414.678 -31.0213 4.50175 414.678
85 1 -5.90645 1.16938 394.5 -5.90645 1.16938 394.5
58 1 -22.9403 1.08851 396.685 -22.9403 1.08851 396.685
45 1 -30.7798 1.14989 396.875 -30.7798 1.14989 396.875
49 1 -28.3842 1.82978 397.106 -28.3842 1.82978 397.106
72 1 -14.4505 3.35723 395.616 -14.4505 3.35723 395.616
80 1 -8.9746 2.59427 395.181 -8.9746 2.59427 395.181
75 1 -12.057 4.04093 395.851 -12.057 4.04093 395.851
83 1 -6.63714 3.36816 395.425 -6.63714 3.36816 395.425
52 1 -26.0541 2.60839 397.381 -26.0541 2.60839 397.381
61 1 -20.6106 1.86815 396.961 -20.6106 1.86815 396.961
63 1 -19.8916 4.09542 396.032 -19.8916 4.09542 396.032
87 1 -4.26796 4.05343 395.675 -4.26796 4.05343 395.675
70 1 -15.1674 1.1301 396.545 -15.1674 1.1301 396.545
47 1 -29.1367 4.03107 398.049 -29.1367 4.03107 398.049