ITEM: TIMESTEP
0
ITEM: NUMBER OF ATOMS
4630
ITEM: BOX BOUNDS xy xz yz pp pp pp
-5.8740988501799997e+01 1.0176002035000000e+02 0.0000000000000000e+00
0.0000000000000000e+00 4.4274527100805940e+00 0.0000000000000000e+00
3.8000000000000000e+02 5.0000000000000000e+02 0.0000000000000000e+00
ITEM: ATOMS id type x y z xu yu zu
27 1 -42.9829 2.62099 398.472 -42.9829 2.62099 398.472
36 1 -37.5546 1.87207 398.387 -37.5546 1.87207 398.387
31 1 -40.6087 3.29145 398.848 -40.6087 3.29145 398.848
22 1 -46.059 4.04739 398.969 -46.059 4.04739 398.969
20 1 -46.8367 1.83265 399.868 -46.8367 1.83265 399.868
40 1 -35.1833 2.5454 398.77 -35.1833 2.5454 398.77
34 1 -38.3148 4.0736 399.275 -38.3148 4.0736 399.275
17 1 -49.1365 1.06958 399.452 -49.1365 1.06958 399.452
9 1 -54.5113 1.74742 399.51 -54.5113 1.74742 399.51
43 1 -32.8919 3.32873 399.201 -32.8919 3.32873 399.201
12 1 -52.2547 2.59699 399.967 -52.2547 2.59699 399.967
5 1 -56.8789 1.12605 399.126 -56.8789 1.12605 399.126
29 1 -41.4148 1.06688 399.744 -41.4148 1.06688 399.744
853 1 -53.4576 3.03532 414.513 -53.4576 3.03532 414.513
873 1 -42.6484 1.55514 414.337 -42.6484 1.55514 414.337
865 1 -46.5562 0.790626 415.854 -46.5562 0.790626 415.854
1174 1 -34.2459 2.23211 417.118 -34.2459 2.23211 417.118
883 1 -37.2415 0.813951 414.253 -37.2415 0.813951 414.253
863 1 -48.0541 2.29597 414.424 -48.0541 2.29597 414.424
315 1 -33.0023 1.76219 402.562 -33.0023 1.76219 402.562
307 1 -37.7242 3.2034 405.05 -37.7242 3.2034 405.05
1150 1 -48.1628 0.752581 417.82 -48.1628 0.752581 417.82
855 1 -51.9603 1.5302 415.943 -51.9603 1.5302 415.943
310 1 -36.1164 3.23717 403.092 -36.1164 3.23717 403.092
871 1 -43.4518 3.75032 415.319 -43.4518 3.75032 415.319
16 1 -49.929 3.27359 400.354 -49.929 3.27359 400.354
309 1 -36.2219 1.69805 406.48 -36.2219 1.69805 406.48
1156 1 -45.0587 3.71283 417.285 -45.0587 3.71283 417.285
867 1 -45.7531 3.02317 414.872 -45.7531 3.02317 414.872
1159 1 -42.7578 0.0128792 417.732 -42.7578 4.44033 417.732
1168 1 -37.3517 3.70029 417.649 -37.3517 3.70029 417.649
1170 1 -36.5476 1.50484 416.667 -36.5476 1.50484 416.667
594 1 -37.0256 3.89478 407.462 -37.0256 3.89478 407.462
37 1 -36.8081 2.53519 400.689 -36.8081 2.53519 400.689
851 1 -54.2603 0.802525 415.496 -54.2603 0.802525 415.496
857 1 -51.1575 3.76308 414.96 -51.1575 3.76308 414.96
592 1 -37.829 1.6636 408.443 -37.829 1.6636 408.443
849 1 -55.063 2.99705 416.48 -55.063 2.99705 416.48
877 1 -40.3469 2.2823 414.785 -40.3469 2.2823 414.785
1143 1 -52.7632 3.72468 416.926 -52.7632 3.72468 416.926
1140 1 -54.3691 3.6858 418.893 -54.3691 3.6858 418.893
845 1 -57.3626 2.26987 416.033 -57.3626 2.26987 416.033
875 1 -41.1505 0.0501344 415.768 -41.1505 4.47759 415.768
886 1 -35.6338 0.849821 412.29 -35.6338 0.849821 412.29
891 1 -32.5268 3.80757 411.761 -32.5268 3.80757 411.761
39 1 -35.3172 1.03783 402.108 -35.3172 1.03783 402.108
1177 1 -32.7486 0.727659 418.551 -32.7486 0.727659 418.551
1167 1 -38.1559 1.46816 418.631 -38.1559 1.46816 418.631
8 1 -55.3422 4.01625 400.52 -55.3422 4.01625 400.52
869 1 -44.2552 1.51792 416.302 -44.2552 1.51792 416.302
1136 1 -56.6686 2.95811 418.447 -56.6686 2.95811 418.447
1162 1 -41.2608 2.93552 419.163 -41.2608 2.93552 419.163
15 1 -50.7415 1.05692 401.38 -50.7415 1.05692 401.38
280 1 -52.3421 1.0274 403.342 -52.3421 1.0274 403.342
277 1 -53.947 1.00325 405.304 -53.947 1.00325 405.304
273 1 -55.5459 0.966734 407.273 -55.5459 0.966734 407.273
560 1 -57.149 0.93072 409.24 -57.149 0.93072 409.24
557 1 -58.7532 0.894025 411.207 -58.7532 0.894025 411.207
26 1 -43.0294 1.0549 401.722 -43.0294 1.0549 401.722
294 1 -44.6372 1.02616 403.701 -44.6372 1.02616 403.701
291 1 -46.2412 0.990216 405.668 -46.2412 0.990216 405.668
576 1 -47.8438 0.952738 407.633 -47.8438 0.952738 407.633
573 1 -49.4469 0.915854 409.598 -49.4469 0.915854 409.598
570 1 -51.0505 0.878359 411.564 -51.0505 0.878359 411.564
854 1 -52.655 0.840547 413.53 -52.655 0.840547 413.53
305 1 -38.5268 0.972588 406.029 -38.5268 0.972588 406.029
589 1 -40.1325 0.937297 407.993 -40.1325 0.937297 407.993
586 1 -41.7381 0.901412 409.958 -41.7381 0.901412 409.958
872 1 -43.3439 0.865018 411.923 -43.3439 0.865018 411.923
599 1 -34.0258 0.884942 410.328 -34.0258 0.884942 410.328
4 1 -56.9586 4.02679 402.428 -56.9586 4.02679 402.428
268 1 -58.5427 3.98161 404.418 -58.5427 3.98161 404.418
1152 1 -47.3595 2.98539 416.837 -47.3595 2.98539 416.837
19 1 -47.65 4.01877 400.859 -47.65 4.01877 400.859
286 1 -49.2458 3.98387 402.794 -49.2458 3.98387 402.794
282 1 -50.8419 3.95191 404.765 -50.8419 3.95191 404.765
279 1 -52.4448 3.92218 406.732 -52.4448 3.92218 406.732
565 1 -54.0464 3.88714 408.701 -54.0464 3.88714 408.701
563 1 -55.6502 3.85103 410.669 -55.6502 3.85103 410.669
846 1 -57.255 3.81432 412.636 -57.255 3.81432 412.636
32 1 -39.927 4.01738 401.218 -39.927 4.01738 401.218
300 1 -41.5328 3.98348 403.171 -41.5328 3.98348 403.171
297 1 -43.136 3.94804 405.134 -43.136 3.94804 405.134
293 1 -44.7395 3.91245 407.098 -44.7395 3.91245 407.098
578 1 -46.3433 3.87584 409.063 -46.3433 3.87584 409.063
575 1 -47.9476 3.83882 411.029 -47.9476 3.83882 411.029
860 1 -49.5523 3.80116 412.994 -49.5523 3.80116 412.994
591 1 -38.6323 3.85962 409.425 -38.6323 3.85962 409.425
588 1 -40.2387 3.82373 411.389 -40.2387 3.82373 411.389
874 1 -41.8451 3.78728 413.354 -41.8451 3.78728 413.354
10 1 -53.8489 2.5261 401.918 -53.8489 2.5261 401.918
274 1 -55.4537 2.51543 403.87 -55.4537 2.51543 403.87
271 1 -57.0457 2.47458 405.845 -57.0457 2.47458 405.845
558 1 -58.6482 2.43839 407.811 -58.6482 2.43839 407.811
24 1 -44.5566 2.57368 400.353 -44.5566 2.57368 400.353
21 1 -46.1517 2.53213 402.281 -46.1517 2.53213 402.281
288 1 -47.7456 2.4942 404.24 -47.7456 2.4942 404.24
285 1 -49.3443 2.45503 406.203 -49.3443 2.45503 406.203
571 1 -50.9462 2.41935 408.167 -50.9462 2.41935 408.167
568 1 -52.5486 2.38259 410.133 -52.5486 2.38259 410.133
852 1 -54.1525 2.34546 412.099 -54.1525 2.34546 412.099
848 1 -55.7574 2.30808 414.066 -55.7574 2.30808 414.066
306 1 -38.4218 2.50845 402.637 -38.4218 2.50845 402.637
302 1 -40.0288 2.47673 404.596 -40.0288 2.47673 404.596
299 1 -41.6333 2.44207 406.562 -41.6333 2.44207 406.562
583 1 -43.2381 2.40664 408.527 -43.2381 2.40664 408.527
581 1 -44.8432 2.37037 410.493 -44.8432 2.37037 410.493
866 1 -46.4485 2.3335 412.459 -46.4485 2.3335 412.459
880 1 -38.7398 2.31879 412.821 -38.7398 2.31879 412.821
312 1 -34.6136 1.73122 404.519 -34.6136 1.73122 404.519
2 1 -58.4817 1.13996 401.039 -58.4817 1.13996 401.039
13 1 -51.5341 3.25167 402.34 -51.5341 3.25167 402.34
278 1 -53.1442 3.2299 404.315 -53.1442 3.2299 404.315
275 1 -54.7454 3.19895 406.285 -54.7454 3.19895 406.285
562 1 -56.3468 3.16231 408.256 -56.3468 3.16231 408.256
559 1 -57.951 3.12626 410.223 -57.951 3.12626 410.223
1166 1 -38.96 3.66334 419.613 -38.96 3.66334 419.613
889 1 -33.331 1.57641 412.742 -33.331 1.57641 412.742
28 1 -42.23 3.28381 400.769 -42.23 3.28381 400.769
296 1 -43.8375 3.25538 402.722 -43.8375 3.25538 402.722
292 1 -45.4404 3.22224 404.686 -45.4404 3.22224 404.686
289 1 -47.0424 3.18534 406.651 -47.0424 3.18534 406.651
574 1 -48.6453 3.14813 408.616 -48.6453 3.14813 408.616
572 1 -50.2486 3.11096 410.581 -50.2486 3.11096 410.581
856 1 -51.8526 3.07321 412.547 -51.8526 3.07321 412.547
303 1 -39.33 3.16865 407.012 -39.33 3.16865 407.012
587 1 -40.9354 3.13309 408.976 -40.9354 3.13309 408.976
584 1 -42.5409 3.09699 410.941 -42.5409 3.09699 410.941
870 1 -44.1469 3.06036 412.906 -44.1469 3.06036 412.906
6 1 -56.1584 1.82398 401.439 -56.1584 1.82398 401.439
270 1 -57.7448 1.78702 403.426 -57.7448 1.78702 403.426
890 1 -32.6371 2.26782 415.156 -32.6371 2.26782 415.156
18 1 -48.4432 1.78823 401.822 -48.4432 1.78823 401.822
284 1 -50.0407 1.75514 403.785 -50.0407 1.75514 403.785
281 1 -51.6436 1.72441 405.751 -51.6436 1.72441 405.751
567 1 -53.2456 1.69154 407.717 -53.2456 1.69154 407.717
564 1 -54.8481 1.6554 409.686 -54.8481 1.6554 409.686
561 1 -56.4526 1.6191 411.653 -56.4526 1.6191 411.653
844 1 -58.0574 1.58177 413.62 -58.0574 1.58177 413.62
33 1 -39.136 1.82237 400.265 -39.136 1.82237 400.265
30 1 -40.7371 1.78418 402.185 -40.7371 1.78418 402.185
298 1 -42.3349 1.75127 404.148 -42.3349 1.75127 404.148
295 1 -43.9377 1.71659 406.115 -43.9377 1.71659 406.115
580 1 -45.5413 1.68043 408.08 -45.5413 1.68043 408.08
577 1 -47.1454 1.64362 410.046 -47.1454 1.64362 410.046
862 1 -48.7499 1.60632 412.011 -48.7499 1.60632 412.011
590 1 -39.4355 1.62804 410.407 -39.4355 1.62804 410.407
876 1 -41.0419 1.59185 412.372 -41.0419 1.59185 412.372
1163 1 -40.4569 0.740491 418.181 -40.4569 0.740491 418.181
1153 1 -46.6657 3.67479 419.25 -46.6657 3.67479 419.25
311 1 -35.4173 3.92878 405.5 -35.4173 3.92878 405.5
42 1 -33.7116 1.07743 400.191 -33.7116 1.07743 400.191
1135 1 -57.4714 0.724639 419.43 -57.4714 0.724639 419.43
1171 1 -35.8546 2.1958 419.081 -35.8546 2.1958 419.081
1139 1 -55.1721 1.45241 419.876 -55.1721 1.45241 419.876
601 1 -33.2217 3.11588 409.347 -33.2217 3.11588 409.347
313 1 -33.8057 3.96198 403.537 -33.8057 3.96198 403.537
858 1 -50.3548 1.56842 413.977 -50.3548 1.56842 413.977
868 1 -44.9499 0.828115 413.889 -44.9499 0.828115 413.889
1147 1 -50.4631 0.0249573 417.373 -50.4631 4.45241 417.373
843 1 101.641 3.77633 414.603 -58.8598 3.77633 414.603
593 1 -37.1328 2.35471 410.858 -37.1328 2.35471 410.858
308 1 -36.9204 1.00604 404.067 -36.9204 1.00604 404.067
861 1 -48.8571 0.0632602 415.407 -48.8571 4.49071 415.407
1158 1 -43.5615 2.20778 418.715 -43.5615 2.20778 418.715
884 1 -36.4376 3.04569 413.272 -36.4376 3.04569 413.272
881 1 -38.0453 3.00951 415.235 -38.0453 3.00951 415.235
885 1 -35.7435 3.7367 415.686 -35.7435 3.7367 415.686
859 1 -49.6601 2.25789 416.39 -49.6601 2.25789 416.39
596 1 -35.5256 2.38987 408.895 -35.5256 2.38987 408.895
879 1 -38.8491 0.777487 416.217 -38.8491 0.777487 416.217
1172 1 -35.0503 4.42776 418.099 -35.0503 4.42776 418.099
1154 1 -45.8622 1.48015 418.267 -45.8622 1.48015 418.267
887 1 -34.9394 1.54095 414.704 -34.9394 1.54095 414.704
597 1 -34.8299 3.08121 411.309 -34.8299 3.08121 411.309
1161 1 -41.9542 2.2453 416.75 -41.9542 2.2453 416.75
1138 1 -55.8658 0.763944 417.463 -55.8658 0.763944 417.463
1149 1 -48.9661 2.94709 418.803 -48.9661 2.94709 418.803
41 1 -34.506 3.27086 401.142 -34.506 3.27086 401.142
888 1 -34.1352 3.77249 413.723 -34.1352 3.77249 413.723
1165 1 -39.653 2.97278 417.199 -39.653 2.97278 417.199
1141 1 -53.5662 1.49158 417.91 -53.5662 1.49158 417.91
1145 1 -51.2663 2.21936 418.356 -51.2663 2.21936 418.356
600 1 -33.9177 2.42405 406.934 -33.9177 2.42405 406.934
1148 1 -49.7694 0.714024 419.786 -49.7694 0.714024 419.786
882 1 -37.9363 0.123098 411.839 -37.9363 4.55055 411.839
1157 1 -44.3653 4.40255 419.698 -44.3653 4.40255 419.698
1144 1 -52.0694 4.41364 419.34 -52.0694 4.41364 419.34
602 1 -32.4172 0.91912 408.366 -32.4172 0.91912 408.366
1755 1 -32.285 2.76564 427.753 -32.285 2.76564 427.753
1460 1 -36.7716 2.84979 423.458 -36.7716 2.84979 423.458
2308 1 -45.7255 3.30429 437.664 -45.7255 3.30429 437.664
2316 1 -41.0188 1.88154 435.161 -41.0188 1.88154 435.161
2312 1 -43.4277 4.03463 438.111 -43.4277 4.03463 438.111
1464 1 -34.4711 3.57805 423.908 -34.4711 3.57805 423.908
1461 1 -35.9671 0.654678 422.476 -35.9671 0.654678 422.476
2039 1 -34.8145 3.38115 434.093 -34.8145 3.38115 434.093
2613 1 -36.5356 1.79877 439.454 -36.5356 1.79877 439.454
1467 1 -32.1703 4.30619 424.359 -32.1703 4.30619 424.359
2603 1 -41.9328 2.53104 439.542 -41.9328 2.53104 439.542
1443 1 -45.9727 4.36423 421.663 -45.9727 4.36423 421.663
1748 1 -36.0805 3.54077 425.871 -36.0805 3.54077 425.871
2023 1 -43.3169 1.15142 434.713 -43.3169 1.15142 434.713
2310 1 -44.2302 1.80053 439.094 -44.2302 1.80053 439.094
1151 1 -47.4692 1.44184 420.233 -47.4692 1.44184 420.233
2303 1 -48.8259 0.339998 438.2 -48.8259 0.339998 438.2
2299 1 -51.1242 4.03758 437.754 -51.1242 4.03758 437.754
2033 1 -37.917 0.417862 434.626 -37.917 0.417862 434.626
1433 1 -51.3761 0.674935 421.753 -51.3761 0.674935 421.753
1430 1 -52.9826 0.635309 423.72 -52.9826 0.635309 423.72
1426 1 -54.5891 0.595206 425.687 -54.5891 0.595206 425.687
1713 1 -56.1955 0.554744 427.654 -56.1955 0.554744 427.654
1710 1 -57.8018 0.514074 429.621 -57.8018 0.514074 429.621
2330 1 -32.6309 2.569 437.938 -32.6309 2.569 437.938
1160 1 -42.0647 0.702968 420.146 -42.0647 0.702968 420.146
1447 1 -43.6725 0.664904 422.111 -43.6725 0.664904 422.111
1444 1 -45.2802 0.626287 424.076 -45.2802 0.626287 424.076
1730 1 -46.8877 0.587115 426.042 -46.8877 0.587115 426.042
1727 1 -48.4948 0.547415 428.009 -48.4948 0.547415 428.009
1724 1 -50.1015 0.507259 429.976 -50.1015 0.507259 429.976
2008 1 -51.7078 0.466766 431.943 -51.7078 0.466766 431.943
2006 1 -53.3137 0.426082 433.91 -53.3137 0.426082 433.91
1458 1 -37.5762 0.617303 424.439 -37.5762 0.617303 424.439
1743 1 -39.185 0.579316 426.403 -39.185 0.579316 426.403
1740 1 -40.7934 0.540704 428.368 -40.7934 0.540704 428.368
2026 1 -42.4013 0.501478 430.333 -42.4013 0.501478 430.333
2022 1 -44.0085 0.461687 432.299 -44.0085 0.461687 432.299
2019 1 -45.6151 0.421419 434.266 -45.6151 0.421419 434.266
2309 1 -44.9228 1.11092 436.68 -44.9228 1.11092 436.68
1137 1 -55.9751 3.64633 420.86 -55.9751 3.64633 420.86
1421 1 -57.5811 3.60629 422.827 -57.5811 3.60629 422.827
1439 1 -48.2728 3.63622 421.216 -48.2728 3.63622 421.216
1435 1 -49.8797 3.5971 423.183 -49.8797 3.5971 423.183
1432 1 -51.4865 3.55745 425.149 -51.4865 3.55745 425.149
1719 1 -53.0931 3.51734 427.116 -53.0931 3.51734 427.116
1716 1 -54.6995 3.47688 429.083 -54.6995 3.47688 429.083
2001 1 -56.3058 3.43622 431.051 -56.3058 3.43622 431.051
1998 1 -57.9119 3.39553 433.018 -57.9119 3.39553 433.018
2323 1 -36.4227 3.34195 436.057 -36.4227 3.34195 436.057
1453 1 -40.5682 3.62584 421.577 -40.5682 3.62584 421.577
1450 1 -42.1764 3.58778 423.541 -42.1764 3.58778 423.541
1446 1 -43.7844 3.54915 425.507 -43.7844 3.54915 425.507
1732 1 -45.392 3.50995 427.473 -45.392 3.50995 427.473
1729 1 -46.9992 3.47021 429.439 -46.9992 3.47021 429.439
2014 1 -48.6058 3.43002 431.406 -48.6058 3.43002 431.406
2011 1 -50.212 3.38949 433.373 -50.212 3.38949 433.373
1745 1 -37.6897 3.50285 427.835 -37.6897 3.50285 427.835
1742 1 -39.2983 3.46427 429.799 -39.2983 3.46427 429.799
2028 1 -40.9063 3.42505 431.764 -40.9063 3.42505 431.764
2025 1 -42.5135 3.38524 433.73 -42.5135 3.38524 433.73
1427 1 -54.4788 2.14075 422.29 -54.4788 2.14075 422.29
1424 1 -56.0851 2.10067 424.257 -56.0851 2.10067 424.257
1711 1 -57.6914 2.06021 426.224 -57.6914 2.06021 426.224
2322 1 -37.2264 1.10836 437.04 -37.2264 1.10836 437.04
1750 1 -34.5852 2.03696 427.303 -34.5852 2.03696 427.303
1155 1 -45.169 2.16973 420.68 -45.169 2.16973 420.68
1441 1 -46.7764 2.13114 422.646 -46.7764 2.13114 422.646
1438 1 -48.3836 2.09199 424.612 -48.3836 2.09199 424.612
1725 1 -49.9906 2.05232 426.579 -49.9906 2.05232 426.579
1722 1 -51.5973 2.01219 428.546 -51.5973 2.01219 428.546
1718 1 -53.2036 1.97172 430.513 -53.2036 1.97172 430.513
2003 1 -54.8097 1.93106 432.48 -54.8097 1.93106 432.48
2000 1 -56.4156 1.89037 434.448 -56.4156 1.89037 434.448
1459 1 -37.4634 2.15892 421.044 -37.4634 2.15892 421.044
1455 1 -39.0721 2.12147 423.008 -39.0721 2.12147 423.008
1452 1 -40.6806 2.08343 424.972 -40.6806 2.08343 424.972
1737 1 -42.2888 2.0448 426.937 -42.2888 2.0448 426.937
1735 1 -43.8965 2.00559 428.903 -43.8965 2.00559 428.903
2020 1 -45.5037 1.96582 430.869 -45.5037 1.96582 430.869
2017 1 -47.1104 1.92559 432.836 -47.1104 1.92559 432.836
2034 1 -37.8035 1.96058 431.23 -37.8035 1.96058 431.23
2031 1 -39.4116 1.92137 433.195 -39.4116 1.92137 433.195
2029 1 -40.2153 4.11525 434.178 -40.2153 4.11525 434.178
1146 1 -50.5727 2.90827 420.77 -50.5727 2.90827 420.77
1431 1 -52.1794 2.86891 422.736 -52.1794 2.86891 422.736
1428 1 -53.7859 2.82904 424.703 -53.7859 2.82904 424.703
1715 1 -55.3923 2.78874 426.67 -55.3923 2.78874 426.67
1712 1 -56.9986 2.74815 428.638 -56.9986 2.74815 428.638
1708 1 -58.6049 2.70744 430.605 -58.6049 2.70744 430.605
1747 1 -36.1946 1.99912 429.266 -36.1946 1.99912 429.266
1449 1 -42.8687 2.89773 421.128 -42.8687 2.89773 421.128
1445 1 -44.4764 2.85939 423.094 -44.4764 2.85939 423.094
1442 1 -46.084 2.8205 425.059 -46.084 2.8205 425.059
1728 1 -47.6913 2.78105 427.026 -47.6913 2.78105 427.026
1726 1 -49.2982 2.74111 428.992 -49.2982 2.74111 428.992
2010 1 -50.9047 2.70077 430.959 -50.9047 2.70077 430.959
2007 1 -52.5108 2.66016 432.926 -52.5108 2.66016 432.926
1456 1 -38.3806 2.81211 425.421 -38.3806 2.81211 425.421
1741 1 -39.9892 2.77381 427.386 -39.9892 2.77381 427.386
1738 1 -41.5974 2.73489 429.351 -41.5974 2.73489 429.351
2024 1 -43.205 2.69537 431.316 -43.205 2.69537 431.316
2021 1 -44.8119 2.65533 433.283 -44.8119 2.65533 433.283
2035 1 -37.1131 2.65128 433.644 -37.1131 2.65128 433.644
1754 1 -32.9753 2.07413 425.34 -32.9753 2.07413 425.34
1423 1 -56.7781 1.41265 421.844 -56.7781 1.41265 421.844
1420 1 -58.3842 1.37237 423.811 -58.3842 1.37237 423.811
2044 1 -31.711 1.91631 433.561 -31.711 1.91631 433.561
1437 1 -49.0763 1.403 422.199 -49.0763 1.403 422.199
1434 1 -50.6832 1.36361 424.166 -50.6832 1.36361 424.166
1721 1 -52.2899 1.32372 426.133 -52.2899 1.32372 426.133
1717 1 -53.8964 1.28342 428.1 -53.8964 1.28342 428.1
1714 1 -55.5027 1.24284 430.067 -55.5027 1.24284 430.067
1999 1 -57.1088 1.20214 432.035 -57.1088 1.20214 432.035
1997 1 101.786 1.16149 434.002 -58.7148 1.16149 434.002
1164 1 -39.7641 1.43093 420.595 -39.7641 1.43093 420.595
1451 1 -41.3723 1.39315 422.559 -41.3723 1.39315 422.559
1448 1 -42.9804 1.35481 424.524 -42.9804 1.35481 424.524
1734 1 -44.5882 1.31589 426.49 -44.5882 1.31589 426.49
1731 1 -46.1956 1.27642 428.456 -46.1956 1.27642 428.456
2016 1 -47.8026 1.23644 430.422 -47.8026 1.23644 430.422
2012 1 -49.409 1.19606 432.389 -49.409 1.19606 432.389
2009 1 -51.0149 1.15542 434.356 -51.0149 1.15542 434.356
1746 1 -36.8851 1.30817 426.853 -36.8851 1.30817 426.853
1744 1 -38.4941 1.26992 428.817 -38.4941 1.26992 428.817
2030 1 -40.1024 1.23101 430.781 -40.1024 1.23101 430.781
2027 1 -41.71 1.19149 432.747 -41.71 1.19149 432.747
2325 1 -35.6188 1.14791 435.075 -35.6188 1.14791 435.075
1749 1 -35.3899 4.23185 428.284 -35.3899 4.23185 428.284
1425 1 -55.282 4.3345 423.273 -55.282 4.3345 423.273
1736 1 -43.0927 4.23899 427.92 -43.0927 4.23899 427.92
1142 1 -52.8725 2.18033 420.323 -52.8725 2.18033 420.323
1720 1 -52.4005 4.20572 429.529 -52.4005 4.20572 429.529
2005 1 -54.0067 4.16513 431.497 -54.0067 4.16513 431.497
2002 1 -55.6127 4.12443 433.464 -55.6127 4.12443 433.464
1169 1 -36.659 4.39116 420.062 -36.659 4.39116 420.062
1723 1 -50.7939 4.24603 427.562 -50.7939 4.24603 427.562
1440 1 -47.58 4.32536 423.629 -47.58 4.32536 423.629
1733 1 -44.7002 4.19949 429.886 -44.7002 4.19949 429.886
2018 1 -46.3071 4.15948 431.852 -46.3071 4.15948 431.852
2015 1 -47.9135 4.11906 433.819 -47.9135 4.11906 433.819
2036 1 -36.9991 4.19367 430.248 -36.9991 4.19367 430.248
2032 1 -38.6076 4.15479 432.212 -38.6076 4.15479 432.212
2326 1 -34.9287 1.8387 437.489 -34.9287 1.8387 437.489
1752 1 -33.7803 4.26935 426.321 -33.7803 4.26935 426.321
1457 1 -38.2677 4.35399 422.026 -38.2677 4.35399 422.026
2043 1 -32.4003 1.22479 431.148 -32.4003 1.22479 431.148
2286 1 -58.0212 1.8498 436.415 -58.0212 1.8498 436.415
2319 1 -38.8328 1.06819 439.006 -38.8328 1.06819 439.006
1436 1 -49.1871 4.28595 425.596 -49.1871 4.28595 425.596
1422 1 -56.8882 4.29421 425.241 -56.8882 4.29421 425.241
1173 1 -34.3579 0.691461 420.513 -34.3579 0.691461 420.513
2293 1 -54.2253 1.07396 438.291 -54.2253 1.07396 438.291
2289 1 -56.5244 0.344787 437.845 -56.5244 0.344787 437.845
2295 1 -52.7287 3.99683 439.721 -52.7287 3.99683 439.721
1465 1 -33.6662 1.38273 422.927 -33.6662 1.38273 422.927
2315 1 -41.1302 0.337643 438.558 -41.1302 0.337643 438.558
2331 1 -32.5158 4.11094 434.542 -32.5158 4.11094 434.542
2297 1 -51.9265 1.80346 438.738 -51.9265 1.80346 438.738
2324 1 -35.7323 4.03254 438.471 -35.7323 4.03254 438.471
2306 1 -46.5279 1.07016 438.647 -46.5279 1.07016 438.647
2285 1 -58.1293 0.304486 439.812 -58.1293 0.304486 439.812
1462 1 -35.2758 1.34576 424.889 -35.2758 1.34576 424.889
1751 1 -33.895 2.72825 429.716 -33.895 2.72825 429.716
2329 1 -33.3204 1.87791 435.524 -33.3204 1.87791 435.524
2042 1 -33.2053 3.41959 432.129 -33.2053 3.41959 432.129
2041 1 -34.01 1.18674 433.111 -34.01 1.18674 433.111
2593 1 -47.3301 3.26345 439.631 -47.3301 3.26345 439.631
2328 1 -33.4349 0.33555 438.92 -33.4349 0.33555 438.92
2301 1 -49.6281 2.5333 439.184 -49.6281 2.5333 439.184
1466 1 -32.8614 3.61471 421.946 -32.8614 3.61471 421.946
2298 1 -51.8177 3.34877 435.34 -51.8177 3.34877 435.34
2321 1 -38.0298 3.30207 438.023 -38.0298 3.30207 438.023
2313 1 -42.625 1.84121 437.127 -42.625 1.84121 437.127
2294 1 -53.4229 3.30802 437.308 -53.4229 3.30802 437.308
2304 1 -48.0234 2.57414 437.217 -48.0234 2.57414 437.217
2300 1 -50.3217 1.84425 436.77 -50.3217 1.84425 436.77
2290 1 -55.7219 2.57878 436.861 -55.7219 2.57878 436.861
2318 1 -39.5242 0.378012 436.592 -39.5242 0.378012 436.592
2327 1 -34.1247 4.07213 436.506 -34.1247 4.07213 436.506
2004 1 -54.1165 2.61944 434.894 -54.1165 2.61944 434.894
2013 1 -48.7164 1.88502 434.803 -48.7164 1.88502 434.803
2288 1 -57.2184 4.08379 435.432 -57.2184 4.08379 435.432
2037 1 -36.3089 0.457067 432.661 -36.3089 0.457067 432.661
1739 1 -41.4847 4.27792 425.955 -41.4847 4.27792 425.955
1753 1 -33.0901 0.533304 428.734 -33.0901 0.533304 428.734
2307 1 -46.4181 2.61487 435.249 -46.4181 2.61487 435.249
2314 1 -41.822 4.07516 436.144 -41.822 4.07516 436.144
2040 1 -34.6998 0.495553 430.697 -34.6998 0.495553 430.697
2320 1 -38.7207 2.61174 435.609 -38.7207 2.61174 435.609
2292 1 -54.9192 0.385369 435.878 -54.9192 0.385369 435.878
2311 1 -44.1199 3.34494 435.697 -44.1199 3.34494 435.697
2302 1 -49.5191 4.07838 435.786 -49.5191 4.07838 435.786
2296 1 -52.6203 1.11466 436.324 -52.6203 1.11466 436.324
1463 1 -35.1625 2.88687 421.494 -35.1625 2.88687 421.494
2287 1 -57.3269 2.53832 438.829 -57.3269 2.53832 438.829
2291 1 -55.0276 3.26741 439.275 -55.0276 3.26741 439.275
2317 1 -40.3273 2.57161 437.575 -40.3273 2.57161 437.575
2038 1 -35.5044 2.69013 431.679 -35.5044 2.69013 431.679
2305 1 -47.2208 0.380805 436.233 -47.2208 0.380805 436.233
2332 1 -31.8266 0.374787 436.956 -31.8266 0.374787 436.956
1709 1 -58.4945 4.2536 427.208 -58.4945 4.2536 427.208
1468 1 -32.0565 1.4191 420.965 -32.0565 1.4191 420.965
1454 1 -39.8763 4.31625 423.99 -39.8763 4.31625 423.99
1429 1 -53.6757 4.37434 421.306 -53.6757 4.37434 421.306
1133 1 -58.2743 2.91845 420.414 -58.2743 2.91845 420.414
1175 1 -33.5532 2.92336 419.532 -33.5532 2.92336 419.532
2616 1 -34.3505 0.985821 443.3 -34.3505 0.985821 443.3
2901 1 -35.9543 0.944943 445.268 -35.9543 0.944943 445.268
2907 1 -32.8567 3.91005 444.732 -32.8567 3.91005 444.732
3194 1 -33.7663 0.131255 449.116 -33.7663 0.131255 449.116
2587 1 -50.4302 0.299166 440.168 -50.4302 0.299166 440.168
2597 1 -45.0324 3.99384 440.078 -45.0324 3.99384 440.078
2584 1 -52.0338 0.258477 442.136 -52.0338 0.258477 442.136
2581 1 -53.6368 0.218095 444.103 -53.6368 0.218095 444.103
2868 1 -55.2393 0.178173 446.071 -55.2393 0.178173 446.071
2865 1 -56.8414 0.138852 448.038 -56.8414 0.138852 448.038
2601 1 -42.7351 0.296924 440.525 -42.7351 0.296924 440.525
2598 1 -44.3388 0.256047 442.493 -44.3388 0.256047 442.493
2885 1 -45.9415 0.215211 444.461 -45.9415 0.215211 444.461
2882 1 -47.5432 0.174603 446.429 -47.5432 0.174603 446.429
2879 1 -49.144 0.134402 448.398 -49.144 0.134402 448.398
2612 1 -36.6468 0.254978 442.852 -36.6468 0.254978 442.852
2898 1 -38.2504 0.214069 444.82 -38.2504 0.214069 444.82
2895 1 -39.8524 0.173078 446.788 -39.8524 0.173078 446.788
3180 1 -41.453 0.132241 448.757 -41.453 0.132241 448.757
2576 1 -56.6319 3.22708 441.242 -56.6319 3.22708 441.242
2574 1 -58.2358 3.18719 443.21 -58.2358 3.18719 443.21
2589 1 -48.9339 3.2226 441.599 -48.9339 3.2226 441.599
2586 1 -50.5369 3.1819 443.567 -50.5369 3.1819 443.567
2874 1 -52.1392 3.14153 445.534 -52.1392 3.14153 445.534
2871 1 -53.7409 3.10162 447.502 -53.7409 3.10162 447.502
3155 1 -55.3421 3.06234 449.469 -55.3421 3.06234 449.469
2607 1 -39.6356 3.26165 439.989 -39.6356 3.26165 439.989
2604 1 -41.2401 3.22088 441.957 -41.2401 3.22088 441.957
2600 1 -42.8433 3.17998 443.925 -42.8433 3.17998 443.925
2887 1 -44.4454 3.13915 445.893 -44.4454 3.13915 445.893
2884 1 -46.0463 3.0986 447.861 -46.0463 3.0986 447.861
3168 1 -47.6463 3.05853 449.83 -47.6463 3.05853 449.83
2900 1 -36.7556 3.13815 446.252 -36.7556 3.13815 446.252
2897 1 -38.3569 3.09712 448.22 -38.3569 3.09712 448.22
2582 1 -53.5307 1.7628 440.705 -53.5307 1.7628 440.705
2579 1 -55.1344 1.72245 442.673 -55.1344 1.72245 442.673
2866 1 -56.7376 1.68254 444.64 -56.7376 1.68254 444.64
2578 1 -55.8298 1.03347 440.259 -55.8298 1.03347 440.259
2595 1 -45.8344 1.75967 441.062 -45.8344 1.75967 441.062
2592 1 -47.4377 1.71882 443.03 -47.4377 1.71882 443.03
2880 1 -49.04 1.67815 444.998 -49.04 1.67815 444.998
2877 1 -50.6416 1.63784 446.966 -50.6416 1.63784 446.966
2873 1 -52.2425 1.59803 448.933 -52.2425 1.59803 448.933
2609 1 -38.1411 1.75828 441.421 -38.1411 1.75828 441.421
2606 1 -39.7452 1.71745 443.388 -39.7452 1.71745 443.388
2892 1 -41.3478 1.67651 445.356 -41.3478 1.67651 445.356
2890 1 -42.9492 1.63568 447.325 -42.9492 1.63568 447.325
3174 1 -44.5494 1.59517 449.294 -44.5494 1.59517 449.294
2618 1 -33.5478 3.21983 442.317 -33.5478 3.21983 442.317
2585 1 -51.232 2.49252 441.152 -51.232 2.49252 441.152
2583 1 -52.8353 2.45196 443.12 -52.8353 2.45196 443.12
2870 1 -54.4381 2.41179 445.087 -54.4381 2.41179 445.087
2867 1 -56.0404 2.37216 447.054 -56.0404 2.37216 447.054
2863 1 -57.6423 2.33318 449.021 -57.6423 2.33318 449.021
2599 1 -43.5371 2.49022 441.509 -43.5371 2.49022 441.509
2596 1 -45.1403 2.44934 443.477 -45.1403 2.44934 443.477
2883 1 -46.7425 2.40859 445.445 -46.7425 2.40859 445.445
2881 1 -48.3437 2.36817 447.414 -48.3437 2.36817 447.414
3164 1 -49.9441 2.32823 449.382 -49.9441 2.32823 449.382
2610 1 -37.4488 2.44828 443.836 -37.4488 2.44828 443.836
2896 1 -39.0515 2.40729 445.804 -39.0515 2.40729 445.804
2893 1 -40.6528 2.36635 447.772 -40.6528 2.36635 447.772
3178 1 -42.2528 2.32567 449.741 -42.2528 2.32567 449.741
2575 1 -57.4339 0.99335 442.226 -57.4339 0.99335 442.226
2591 1 -48.1321 1.02929 440.615 -48.1321 1.02929 440.615
2588 1 -49.7355 0.988493 442.583 -49.7355 0.988493 442.583
2876 1 -51.3381 0.947937 444.55 -51.3381 0.947937 444.55
2872 1 -52.9401 0.90778 446.518 -52.9401 0.90778 446.518
2869 1 -54.5415 0.86817 448.485 -54.5415 0.86817 448.485
2605 1 -40.438 1.02757 440.973 -40.438 1.02757 440.973
2602 1 -42.0419 0.986706 442.941 -42.0419 0.986706 442.941
2889 1 -43.6445 0.945815 444.909 -43.6445 0.945815 444.909
2886 1 -45.246 0.905104 446.877 -45.246 0.905104 446.877
3170 1 -46.8464 0.86477 448.846 -46.8464 0.86477 448.846
2899 1 -37.5565 0.903893 447.236 -37.5565 0.903893 447.236
3184 1 -39.157 0.862939 449.205 -39.157 0.862939 449.205
2580 1 -54.3326 3.95631 441.689 -54.3326 3.95631 441.689
2577 1 -55.936 3.91616 443.656 -55.936 3.91616 443.656
2864 1 -57.5391 3.87652 445.623 -57.5391 3.87652 445.623
2862 1 -58.3406 1.64321 446.607 -58.3406 1.64321 446.607
2594 1 -46.6362 3.95296 442.046 -46.6362 3.95296 442.046
2590 1 -48.239 3.91218 444.014 -48.239 3.91218 444.014
2878 1 -49.8409 3.87167 445.982 -49.8409 3.87167 445.982
2875 1 -51.4421 3.83159 447.95 -51.4421 3.83159 447.95
3159 1 -53.0427 3.79209 449.917 -53.0427 3.79209 449.917
2611 1 -37.3385 3.99231 440.437 -37.3385 3.99231 440.437
2608 1 -38.9433 3.95162 442.404 -38.9433 3.95162 442.404
2894 1 -40.5467 3.91071 444.372 -40.5467 3.91071 444.372
2891 1 -42.1487 3.86979 446.34 -42.1487 3.86979 446.34
2888 1 -43.7494 3.8291 448.309 -43.7494 3.8291 448.309
2904 1 -34.46 3.86904 446.699 -34.46 3.86904 446.699
2621 1 -31.9413 3.25993 440.351 -31.9413 3.25993 440.351
2617 1 -34.2384 2.52936 439.903 -34.2384 2.52936 439.903
2614 1 -35.8444 2.48905 441.869 -35.8444 2.48905 441.869
2908 1 -32.1647 0.172517 447.147 -32.1647 0.172517 447.147
2619 1 -32.7448 1.02624 441.334 -32.7448 1.02624 441.334
2906 1 -32.9658 2.36562 448.131 -32.9658 2.36562 448.131
2905 1 -33.6586 1.67585 445.716 -33.6586 1.67585 445.716
2620 1 -32.0543 1.71668 443.749 -32.0543 1.71668 443.749
3190 1 -36.0614 3.8279 448.668 -36.0614 3.8279 448.668
2902 1 -35.2609 1.63474 447.684 -35.2609 1.63474 447.684
2903 1 -35.1526 3.17915 444.284 -35.1526 3.17915 444.284
2615 1 -35.0416 0.295551 440.886 -35.0416 0.295551 440.886
2909 1 -31.3631 2.40681 446.164 -31.3631 2.40681 446.164
14 1 -51.5098 0.39561 399.074 -51.5098 4.82306 399.074
7 1 -55.978 3.34784 398.302 -55.978 3.34784 398.302
25 1 -43.7528 0.394317 399.358 -43.7528 4.82177 399.358
38 1 -35.9853 0.321151 399.667 -35.9853 4.7486 399.667
23 1 -45.3493 0.340377 401.311 -45.3493 4.76783 401.311
287 1 -48.5448 0.259661 405.22 -48.5448 4.68711 405.22
878 1 -39.5434 0.0868789 413.803 -39.5434 4.51433 413.803
579 1 -45.6458 0.138303 411.476 -45.6458 4.56576 411.476
585 1 -42.4356 0.210844 407.545 -42.4356 4.6383 407.545
290 1 -46.9481 0.299041 403.26 -46.9481 4.72649 403.26
11 1 -53.0547 0.333319 400.978 -53.0547 4.76077 400.978
595 1 -36.3293 0.158687 409.876 -36.3293 4.58614 409.876
1134 1 -58.1652 0.0366802 417.017 -58.1652 4.46413 417.017
283 1 -50.1453 0.223161 407.183 -50.1453 4.65061 407.183
582 1 -44.0406 0.174892 409.51 -44.0406 4.60234 409.51
276 1 -54.6603 0.314673 402.902 -54.6603 4.74213 402.902
569 1 -51.7472 0.18729 409.149 -51.7472 4.61474 409.149
847 1 -56.56 0.0753654 415.049 -56.56 4.50282 415.049
272 1 -56.2495 0.280923 404.861 -56.2495 4.70838 404.861
3 1 -57.749 3.35013 400.055 -57.749 3.35013 400.055
35 1 -37.6086 0.307864 401.64 -37.6086 4.73532 401.64
598 1 -34.7216 0.193408 407.914 -34.7216 4.62086 407.914
850 1 -54.9549 0.113106 413.083 -54.9549 4.54056 413.083
304 1 -39.2227 0.280739 403.613 -39.2227 4.70819 403.613
301 1 -40.8301 0.246198 405.579 -40.8301 4.67365 405.579
269 1 -57.8469 0.242816 406.83 -57.8469 4.67027 406.83