ITEM: TIMESTEP
0
ITEM: NUMBER OF ATOMS
4630
ITEM: BOX BOUNDS xy xz yz pp pp pp
-5.4540988501800001e+01 9.7560020350000002e+01 0.0000000000000000e+00
0.0000000000000000e+00 4.4274527100805940e+00 0.0000000000000000e+00
3.8000000000000000e+02 5.0000000000000000e+02 0.0000000000000000e+00
ITEM: ATOMS id type x y z xu yu zu
27 1 -41.3313 2.64274 397.43 -41.3313 2.64274 397.43
36 1 -35.8851 1.89701 396.919 -35.8851 1.89701 396.919
31 1 -38.9296 3.32061 397.621 -38.9296 3.32061 397.621
22 1 -44.3833 4.07301 398.168 -44.3833 4.07301 398.168
20 1 -45.106 1.85626 399.12 -45.106 1.85626 399.12
40 1 -33.4856 2.57821 397.116 -33.4856 2.57821 397.116
34 1 -36.5922 4.09726 397.857 -36.5922 4.09726 397.857
17 1 -47.4459 1.09618 398.894 -47.4459 1.09618 398.894
9 1 -52.8359 1.77469 399.378 -52.8359 1.77469 399.378
43 1 -31.1493 3.35632 397.355 -31.1493 3.35632 397.355
12 1 -50.5346 2.61592 399.646 -50.5346 2.61592 399.646
29 1 -39.6717 1.09423 398.574 -39.6717 1.09423 398.574
853 1 -50.6631 3.06159 414.194 -50.6631 3.06159 414.194
873 1 -39.8327 1.59346 413.154 -39.8327 1.59346 413.154
865 1 -43.6442 0.825277 414.973 -43.6442 0.825277 414.973
1174 1 -31.1944 2.27829 415.249 -31.1944 2.27829 415.249
883 1 -34.4101 0.85697 412.642 -34.4101 0.85697 412.642
863 1 -45.2509 2.32897 413.673 -45.2509 2.32897 413.673
315 1 -31.0108 1.7999 400.702 -31.0108 1.7999 400.702
307 1 -35.569 3.23927 403.544 -35.569 3.23927 403.544
1150 1 -45.1139 0.785156 417.054 -45.1139 0.785156 417.054
855 1 -49.0581 1.55809 415.495 -49.0581 1.55809 415.495
310 1 -34.0987 3.27164 401.473 -34.0987 3.27164 401.473
871 1 -40.5677 3.78806 414.194 -40.5677 3.78806 414.194
16 1 -48.175 3.29819 399.852 -48.175 3.29819 399.852
309 1 -33.9548 1.73717 404.845 -33.9548 1.73717 404.845
1156 1 -42.0381 3.74903 416.274 -42.0381 3.74903 416.274
867 1 -42.9096 3.05864 413.933 -42.9096 3.05864 413.933
1159 1 -39.6965 0.0513619 416.535 -39.6965 4.47881 416.535
1168 1 -34.275 3.74361 416.022 -34.275 3.74361 416.022
1170 1 -33.5385 1.54884 414.984 -33.5385 1.54884 414.984
594 1 -34.6898 3.93411 405.883 -34.6898 3.93411 405.883
37 1 -34.9735 2.56796 399.147 -34.9735 2.56796 399.147
851 1 -51.3963 0.827228 415.236 -51.3963 0.827228 415.236
857 1 -48.3245 3.7923 414.454 -48.3245 3.7923 414.454
592 1 -35.4245 1.70309 406.921 -35.4245 1.70309 406.921
849 1 -52.1298 3.02001 416.278 -52.1298 3.02001 416.278
877 1 -37.4896 2.32271 413.417 -37.4896 2.32271 413.417
1143 1 -49.7921 3.75108 416.536 -49.7921 3.75108 416.536
1140 1 -51.2609 3.70879 418.619 -51.2609 3.70879 418.619
845 1 97.6343 2.28906 416.02 -54.4667 2.28906 416.02
875 1 -38.2251 0.0899914 414.456 -38.2251 4.51744 414.456
886 1 -32.9384 0.89371 410.566 -32.9384 0.89371 410.566
891 1 -29.8563 3.85453 409.795 -29.8563 3.85453 409.795
39 1 -33.3686 1.07039 400.431 -33.3686 1.07039 400.431
1177 1 -29.5875 0.775218 416.553 -29.5875 0.775218 416.553
1167 1 -35.0117 1.51075 417.061 -35.0117 1.51075 417.061
8 1 -53.5895 4.04004 400.444 -53.5895 4.04004 400.444
869 1 -41.3028 1.55495 415.234 -41.3028 1.55495 415.234
1136 1 -53.5978 2.97716 418.362 -53.5978 2.97716 418.362
1162 1 -38.0908 2.97535 417.837 -38.0908 2.97535 417.837
15 1 -48.9113 1.0831 400.935 -48.9113 1.0831 400.935
280 1 -50.3711 1.05353 403.007 -50.3711 1.05353 403.007
277 1 -51.8349 1.02955 405.082 -51.8349 1.02955 405.082
273 1 -53.2908 0.992073 407.166 -53.2908 0.992073 407.166
560 1 97.3509 0.953525 409.251 -54.7501 0.953525 409.251
26 1 -41.1445 1.08426 400.662 -41.1445 1.08426 400.662
294 1 -42.6114 1.05618 402.752 -42.6114 1.05618 402.752
291 1 -44.0754 1.02048 404.831 -44.0754 1.02048 404.831
576 1 -45.5382 0.983445 406.91 -45.5382 0.983445 406.91
573 1 -47.0018 0.946563 408.989 -47.0018 0.946563 408.989
570 1 -48.4655 0.908078 411.07 -48.4655 0.908078 411.07
854 1 -49.9302 0.868197 413.153 -49.9302 0.868197 413.153
305 1 -36.3028 1.00906 404.58 -36.3028 1.00906 404.58
589 1 -37.7708 0.974495 406.657 -37.7708 0.974495 406.657
586 1 -39.2386 0.938788 408.735 -39.2386 0.938788 408.735
872 1 -40.7067 0.90205 410.813 -40.7067 0.90205 410.813
599 1 -31.4666 0.929476 408.49 -31.4666 0.929476 408.49
1152 1 -44.3789 3.01907 416.014 -44.3789 3.01907 416.014
19 1 -45.8478 4.04207 400.164 -45.8478 4.04207 400.164
286 1 -47.3041 4.00968 402.215 -47.3041 4.00968 402.215
282 1 -48.7595 3.97966 404.3 -48.7595 3.97966 404.3
279 1 -50.2216 3.95028 406.382 -50.2216 3.95028 406.382
565 1 -51.6812 3.91427 408.466 -51.6812 3.91427 408.466
563 1 -53.1426 3.87574 410.551 -53.1426 3.87574 410.551
846 1 -54.6058 3.83566 412.635 -54.6058 3.83566 412.635
32 1 -38.0643 4.04423 399.915 -38.0643 4.04423 399.915
300 1 -39.5328 4.01373 401.981 -39.5328 4.01373 401.981
297 1 -40.9977 3.98014 404.055 -40.9977 3.98014 404.055
293 1 -42.4622 3.9453 406.133 -42.4622 3.9453 406.133
578 1 -43.927 3.90883 408.211 -43.927 3.90883 408.211
575 1 -45.3923 3.87137 410.291 -45.3923 3.87137 410.291
860 1 -46.858 3.83248 412.372 -46.858 3.83248 412.372
591 1 -36.1592 3.89917 407.959 -36.1592 3.89917 407.959
588 1 -37.6284 3.86311 410.037 -37.6284 3.86311 410.037
874 1 -39.0978 3.82606 412.115 -39.0978 3.82606 412.115
10 1 -51.9873 2.54772 401.712 -51.9873 2.54772 401.712
274 1 -53.453 2.53878 403.777 -53.453 2.53878 403.777
271 1 97.2004 2.49764 405.866 -54.9006 2.49764 405.866
24 1 -42.7786 2.59419 399.417 -42.7786 2.59419 399.417
21 1 -44.2362 2.55766 401.458 -44.2362 2.55766 401.458
288 1 -45.6903 2.52122 403.531 -45.6903 2.52122 403.531
285 1 -47.1495 2.48357 405.609 -47.1495 2.48357 405.609
571 1 -48.6115 2.44848 407.687 -48.6115 2.44848 407.687
568 1 -50.0732 2.41093 409.768 -50.0732 2.41093 409.768
852 1 -51.5362 2.37166 411.852 -51.5362 2.37166 411.852
848 1 -53.0008 2.33114 413.936 -53.0008 2.33114 413.936
306 1 -36.4492 2.54125 401.204 -36.4492 2.54125 401.204
302 1 -37.9175 2.51051 403.276 -37.9175 2.51051 403.276
299 1 -39.3835 2.47694 405.354 -39.3835 2.47694 405.354
583 1 -40.8498 2.44192 407.433 -40.8498 2.44192 407.433
581 1 -42.3164 2.4055 409.512 -42.3164 2.4055 409.512
866 1 -43.7834 2.36791 411.592 -43.7834 2.36791 411.592
880 1 -36.0189 2.36004 411.339 -36.0189 2.36004 411.339
312 1 -32.484 1.76965 402.771 -32.484 1.76965 402.771
13 1 -49.6354 3.27819 401.949 -49.6354 3.27819 401.949
278 1 -51.1033 3.25611 404.037 -51.1033 3.25611 404.037
275 1 -52.5622 3.22501 406.121 -52.5622 3.22501 406.121
562 1 -54.0197 3.18653 408.208 -54.0197 3.18653 408.208
1166 1 -35.7486 3.70518 418.099 -35.7486 3.70518 418.099
889 1 -30.5928 1.62284 410.832 -30.5928 1.62284 410.832
28 1 -40.4125 3.31234 399.655 -40.4125 3.31234 399.655
296 1 -41.8815 3.28471 401.717 -41.8815 3.28471 401.717
292 1 -43.3444 3.25238 403.793 -43.3444 3.25238 403.793
289 1 -44.8066 3.21588 405.871 -44.8066 3.21588 405.871
574 1 -46.2699 3.17896 407.95 -46.2699 3.17896 407.95
572 1 -47.7335 3.14132 410.03 -47.7335 3.14132 410.03
856 1 -49.1976 3.10202 412.111 -49.1976 3.10202 412.111
303 1 -37.0372 3.20551 405.618 -37.0372 3.20551 405.618
587 1 -38.5048 3.17044 407.695 -38.5048 3.17044 407.695
584 1 -39.9726 3.13426 409.774 -39.9726 3.13426 409.774
870 1 -41.4409 3.09701 411.853 -41.4409 3.09701 411.853
6 1 -54.3419 1.84624 401.422 -54.3419 1.84624 401.422
890 1 -29.7205 2.31556 413.174 -29.7205 2.31556 413.174
18 1 -46.5704 1.81313 401.188 -46.5704 1.81313 401.188
284 1 -48.0282 1.78232 403.265 -48.0282 1.78232 403.265
281 1 -49.4908 1.75243 405.344 -49.4908 1.75243 405.344
567 1 -50.9515 1.71935 407.425 -50.9515 1.71935 407.425
564 1 -52.4117 1.68146 409.509 -52.4117 1.68146 409.509
561 1 -53.8741 1.64223 411.593 -53.8741 1.64223 411.593
33 1 -37.3423 1.84708 398.9 -37.3423 1.84708 398.9
30 1 -38.8064 1.81255 400.936 -38.8064 1.81255 400.936
298 1 -40.266 1.78267 403.013 -40.266 1.78267 403.013
295 1 -41.7299 1.74921 405.093 -41.7299 1.74921 405.093
580 1 -43.1945 1.7134 407.172 -43.1945 1.7134 407.172
577 1 -44.6596 1.67647 409.251 -44.6596 1.67647 409.251
862 1 -46.1251 1.63836 411.331 -46.1251 1.63836 411.331
590 1 -36.8937 1.66756 408.998 -36.8937 1.66756 408.998
876 1 -38.363 1.63098 411.076 -38.363 1.63098 411.076
1163 1 -37.3544 0.781076 416.797 -37.3544 0.781076 416.797
1153 1 -43.5091 3.70899 418.354 -43.5091 3.70899 418.354
311 1 -33.2188 3.96767 403.808 -33.2188 3.96767 403.808
42 1 -31.8993 1.10583 398.398 -31.8993 1.10583 398.398
1135 1 -54.3322 0.74156 419.404 -54.3322 0.74156 419.404
1171 1 -32.6686 2.24038 417.325 -32.6686 2.24038 417.325
1139 1 -51.9957 1.47351 419.661 -51.9957 1.47351 419.661
601 1 -30.7306 3.16064 407.453 -30.7306 3.16064 407.453
313 1 -31.745 4.00024 401.733 -31.745 4.00024 401.733
858 1 -47.5911 1.59879 413.412 -47.5911 1.59879 413.412
868 1 -42.1752 0.864257 412.893 -42.1752 0.864257 412.893
1147 1 -47.4535 0.0545641 416.795 -47.4535 4.48202 416.795
593 1 -34.5485 2.39647 409.262 -34.5485 2.39647 409.262
308 1 -34.8342 1.04136 402.504 -34.8342 1.04136 402.504
861 1 -45.9848 0.0952922 414.713 -45.9848 4.52274 414.713
1158 1 -40.4325 2.24544 417.575 -40.4325 2.24544 417.575
884 1 -33.6743 3.08918 411.604 -33.6743 3.08918 411.604
881 1 -35.146 3.05201 413.681 -35.146 3.05201 413.681
885 1 -32.802 3.78136 413.945 -32.802 3.78136 413.945
859 1 -46.719 2.28878 415.754 -46.719 2.28878 415.754
596 1 -33.0779 2.43181 407.186 -33.0779 2.43181 407.186
879 1 -35.882 0.819406 414.719 -35.882 0.819406 414.719
1172 1 -31.9315 0.0456857 416.287 -31.9315 4.47314 416.287
1154 1 -42.7735 1.51541 417.314 -42.7735 1.51541 417.314
887 1 -32.0655 1.58624 412.907 -32.0655 1.58624 412.907
597 1 -32.2026 3.12545 409.528 -32.2026 3.12545 409.528
1161 1 -38.9607 2.28451 415.495 -38.9607 2.28451 415.495
1138 1 -52.8637 0.785015 417.32 -52.8637 0.785015 417.32
1149 1 -45.849 2.97844 418.095 -45.849 2.97844 418.095
41 1 -32.6246 3.30186 399.411 -32.6246 3.30186 399.411
888 1 -31.3292 3.81837 411.87 -31.3292 3.81837 411.87
1165 1 -36.6181 3.01406 415.758 -36.6181 3.01406 415.758
1141 1 -50.5263 1.51634 417.578 -50.5263 1.51634 417.578
1145 1 -48.1881 2.24754 417.836 -48.1881 2.24754 417.836
600 1 -31.6067 2.46586 405.113 -31.6067 2.46586 405.113
1148 1 -46.5844 0.744021 419.136 -46.5844 0.744021 419.136
882 1 -35.2837 0.164647 410.301 -35.2837 4.5921 410.301
1157 1 -41.1685 0.011842 418.615 -41.1685 4.43929 418.615
1144 1 -48.9231 0.01282 418.877 -48.9231 4.44027 418.877
602 1 -29.9942 0.964085 406.416 -29.9942 0.964085 406.416
1755 1 -28.4661 2.81103 425.652 -28.4661 2.81103 425.652
1460 1 -33.2764 2.89298 421.743 -33.2764 2.89298 421.743
2308 1 -41.2819 3.33988 436.553 -41.2819 3.33988 436.553
2316 1 -36.7261 1.92256 433.692 -36.7261 1.92256 433.692
2312 1 -38.9448 4.07394 436.811 -38.9448 4.07394 436.811
1464 1 -30.934 3.62293 422.008 -30.934 3.62293 422.008
1461 1 -32.5384 0.698675 420.705 -32.5384 0.698675 420.705
2039 1 -30.5657 3.42544 432.141 -30.5657 3.42544 432.141
2613 1 -31.9306 1.84564 437.592 -31.9306 1.84564 437.592
1467 1 -28.5911 4.35275 422.274 -28.5911 4.35275 422.274
2603 1 -37.3469 2.57296 438.11 -37.3469 2.57296 438.11
1443 1 -42.6413 4.39891 420.695 -42.6413 4.39891 420.695
1748 1 -32.4113 3.58409 424.083 -32.4113 3.58409 424.083
2023 1 -39.0648 1.1898 433.432 -39.0648 1.1898 433.432
2310 1 -39.6838 1.83887 437.851 -39.6838 1.83887 437.851
1151 1 -44.245 1.47489 419.395 -44.245 1.47489 419.395
2303 1 -44.3567 0.369697 437.337 -44.3567 0.369697 437.337
2299 1 -46.6928 4.06235 437.08 -46.6928 4.06235 437.08
2033 1 -33.6467 0.460993 432.915 -33.6467 0.460993 432.915
1433 1 -48.0558 0.701929 421.218 -48.0558 0.701929 421.218
1430 1 -49.5282 0.658938 423.301 -49.5282 0.658938 423.301
1426 1 -51.0013 0.615152 425.384 -51.0013 0.615152 425.384
1713 1 -52.4752 0.570721 427.468 -52.4752 0.570721 427.468
1710 1 -53.9498 0.525824 429.551 -53.9498 0.525824 429.551
2330 1 -28.108 2.61555 435.782 -28.108 2.61555 435.782
1160 1 -38.8273 0.741979 418.876 -38.8273 0.741979 418.876
1447 1 -40.3009 0.702114 420.955 -40.3009 0.702114 420.955
1444 1 -41.7752 0.661485 423.035 -41.7752 0.661485 423.035
1730 1 -43.2501 0.620083 425.116 -43.2501 0.620083 425.116
1727 1 -44.7255 0.577898 427.197 -44.7255 0.577898 427.197
1724 1 -46.2012 0.534933 429.278 -46.2012 0.534933 429.278
2008 1 -47.677 0.491219 431.361 -47.677 0.491219 431.361
2006 1 -49.1527 0.44682 433.444 -49.1527 0.44682 433.444
1458 1 -34.0147 0.659723 422.781 -34.0147 0.659723 422.781
1743 1 -35.4916 0.620308 424.858 -35.4916 0.620308 424.858
1740 1 -36.969 0.580383 426.936 -36.969 0.580383 426.936
2026 1 -38.4469 0.539865 429.014 -38.4469 0.539865 429.014
2022 1 -39.925 0.498648 431.093 -39.925 0.498648 431.093
2019 1 -41.4029 0.45661 433.173 -41.4029 0.45661 433.173
2309 1 -40.5431 1.14763 435.512 -40.5431 1.14763 435.512
1137 1 -52.7307 3.66544 420.703 -52.7307 3.66544 420.703
1421 1 -54.2018 3.62118 422.788 -54.2018 3.62118 422.788
1439 1 -44.981 3.66801 420.436 -44.981 3.66801 420.436
1435 1 -46.4537 3.62613 422.517 -46.4537 3.62613 422.517
1432 1 -47.9271 3.58338 424.6 -47.9271 3.58338 424.6
1719 1 -49.4011 3.53986 426.682 -49.4011 3.53986 426.682
1716 1 -50.8758 3.49567 428.765 -50.8758 3.49567 428.765
2001 1 -52.3507 3.45095 430.849 -52.3507 3.45095 430.849
1998 1 -53.8258 3.40586 432.933 -53.8258 3.40586 432.933
2323 1 -32.0473 3.38652 434.216 -32.0473 3.38652 434.216
1453 1 -37.2227 3.6661 420.177 -37.2227 3.6661 420.177
1450 1 -38.6974 3.62635 422.256 -38.6974 3.62635 422.256
1446 1 -40.1728 3.58593 424.335 -40.1728 3.58593 424.335
1732 1 -41.6487 3.54479 426.415 -41.6487 3.54479 426.415
1729 1 -43.125 3.50291 428.496 -43.125 3.50291 428.496
2014 1 -44.6015 3.46024 430.577 -44.6015 3.46024 430.577
2011 1 -46.0779 3.41676 432.659 -46.0779 3.41676 432.659
1745 1 -33.8892 3.54489 426.16 -33.8892 3.54489 426.16
1742 1 -35.3676 3.50526 428.237 -35.3676 3.50526 428.237
2028 1 -36.8465 3.46509 430.314 -36.8465 3.46509 430.314
2025 1 -38.3254 3.42425 432.393 -38.3254 3.42425 432.393
1427 1 -51.1294 2.1621 422.002 -51.1294 2.1621 422.002
1424 1 -52.6015 2.11807 424.086 -52.6015 2.11807 424.086
1711 1 -54.0747 2.0734 426.17 -54.0747 2.0734 426.17
2322 1 -32.7881 1.15313 435.254 -32.7881 1.15313 435.254
1750 1 -30.8083 2.08104 425.386 -30.8083 2.08104 425.386
1155 1 -41.9048 2.20548 419.655 -41.9048 2.20548 419.655
1441 1 -43.3779 2.16467 421.735 -43.3779 2.16467 421.735
1438 1 -44.8517 2.12302 423.816 -44.8517 2.12302 423.816
1725 1 -46.3262 2.08055 425.898 -46.3262 2.08055 425.898
1722 1 -47.8011 2.0373 427.98 -47.8011 2.0373 427.98
1718 1 -49.2763 1.99335 430.063 -49.2763 1.99335 430.063
2003 1 -50.7517 1.94879 432.146 -50.7517 1.94879 432.146
2000 1 -52.2269 1.90377 434.23 -52.2269 1.90377 434.23
1459 1 -34.1432 2.2019 419.402 -34.1432 2.2019 419.402
1455 1 -35.6185 2.16287 421.479 -35.6185 2.16287 421.479
1452 1 -37.0943 2.12327 423.557 -37.0943 2.12327 423.557
1737 1 -38.5707 2.08308 425.635 -38.5707 2.08308 425.635
1735 1 -40.0476 2.04224 427.715 -40.0476 2.04224 427.715
2020 1 -41.5248 2.00068 429.794 -41.5248 2.00068 429.794
2017 1 -43.0021 1.95831 431.875 -43.0021 1.95831 431.875
2034 1 -33.7666 2.00277 429.538 -33.7666 2.00277 429.538
2031 1 -35.2464 1.96299 431.615 -35.2464 1.96299 431.615
2029 1 -35.9863 4.1566 432.653 -35.9863 4.1566 432.653
1146 1 -47.32 2.93682 420.177 -47.32 2.93682 420.177
1431 1 -48.7919 2.89427 422.259 -48.7919 2.89427 422.259
1428 1 -50.2646 2.85086 424.343 -50.2646 2.85086 424.343
1715 1 -51.7382 2.80673 426.426 -51.7382 2.80673 426.426
1712 1 -53.2124 2.76205 428.51 -53.2124 2.76205 428.51
1747 1 -32.2872 2.04208 427.462 -32.2872 2.04208 427.462
1449 1 -39.564 2.93587 419.916 -39.564 2.93587 419.916
1445 1 -41.038 2.89562 421.995 -41.038 2.89562 421.995
1442 1 -42.5125 2.85461 424.075 -42.5125 2.85461 424.075
1728 1 -43.9877 2.81281 426.156 -43.9877 2.81281 426.156
1726 1 -45.4633 2.77024 428.238 -45.4633 2.77024 428.238
2010 1 -46.9391 2.72689 430.32 -46.9391 2.72689 430.32
2007 1 -48.4149 2.68283 432.402 -48.4149 2.68283 432.402
1456 1 -34.753 2.8538 423.82 -34.753 2.8538 423.82
1741 1 -36.2302 2.81414 425.897 -36.2302 2.81414 425.897
1738 1 -37.7079 2.77393 427.975 -37.7079 2.77393 427.975
2024 1 -39.1859 2.73308 430.054 -39.1859 2.73308 430.054
2021 1 -40.664 2.69146 432.133 -40.664 2.69146 432.133
2035 1 -32.9063 2.69446 431.877 -32.9063 2.69446 431.877
1754 1 -29.33 2.11975 423.311 -29.33 2.11975 423.311
1423 1 -53.4661 1.42968 421.745 -53.4661 1.42968 421.745
2044 1 -27.4836 1.96127 431.37 -27.4836 1.96127 431.37
1437 1 -45.7172 1.43345 421.476 -45.7172 1.43345 421.476
1434 1 -47.1903 1.39113 423.558 -47.1903 1.39113 423.558
1721 1 -48.664 1.34799 425.641 -48.664 1.34799 425.641
1717 1 -50.1384 1.30411 427.724 -50.1384 1.30411 427.724
1714 1 -51.6132 1.25964 429.807 -51.6132 1.25964 429.807
1999 1 -53.0883 1.21472 431.891 -53.0883 1.21472 431.891
1164 1 -36.4855 1.47199 419.138 -36.4855 1.47199 419.138
1451 1 -37.96 1.43258 421.217 -37.96 1.43258 421.217
1448 1 -39.435 1.3925 423.295 -39.435 1.3925 423.295
1734 1 -40.9107 1.35173 425.375 -40.9107 1.35173 425.375
1731 1 -42.3868 1.31022 427.455 -42.3868 1.31022 427.455
2016 1 -43.8633 1.26795 429.536 -43.8633 1.26795 429.536
2012 1 -45.3397 1.22487 431.618 -45.3397 1.22487 431.618
2009 1 -46.8159 1.181 433.7 -46.8159 1.181 433.7
1746 1 -33.1502 1.35081 425.122 -33.1502 1.35081 425.122
1744 1 -34.6284 1.3114 427.198 -34.6284 1.3114 427.198
2030 1 -36.107 1.27152 429.275 -36.107 1.27152 429.275
2027 1 -37.5859 1.23104 431.353 -37.5859 1.23104 431.353
2325 1 -31.3065 1.19231 433.178 -31.3065 1.19231 433.178
1749 1 -31.5477 4.27532 426.424 -31.5477 4.27532 426.424
1425 1 -51.8653 4.3539 423.044 -51.8653 4.3539 423.044
1736 1 -39.3091 4.27647 426.675 -39.3091 4.27647 426.675
1142 1 -49.6583 2.2053 419.919 -49.6583 2.2053 419.919
1720 1 -48.5387 4.22913 429.022 -48.5387 4.22913 429.022
2005 1 -50.014 4.18486 431.105 -50.014 4.18486 431.105
2002 1 -51.4893 4.14006 433.188 -51.4893 4.14006 433.188
1169 1 -33.4059 4.43494 418.363 -33.4059 4.43494 418.363
1723 1 -47.0636 4.27274 426.939 -47.0636 4.27274 426.939
1440 1 -44.1147 4.35767 422.776 -44.1147 4.35767 422.776
1733 1 -40.7862 4.23528 428.754 -40.7862 4.23528 428.754
2018 1 -42.2635 4.19333 430.835 -42.2635 4.19333 430.835
2015 1 -43.7406 4.15054 432.916 -43.7406 4.15054 432.916
2036 1 -33.0269 4.2362 428.5 -33.0269 4.2362 428.5
2032 1 -34.5065 4.19668 430.576 -34.5065 4.19668 430.576
2326 1 -30.4483 1.88465 435.517 -30.4483 1.88465 435.517
1752 1 -30.0691 4.31415 424.349 -30.0691 4.31415 424.349
1457 1 -34.8808 4.39618 420.44 -34.8808 4.39618 420.44
2043 1 -28.3439 1.26951 429.03 -28.3439 1.26951 429.03
2286 1 -53.7016 1.85845 436.314 -53.7016 1.85845 436.314
2319 1 -34.2692 1.11319 437.331 -34.2692 1.11319 437.331
1436 1 -45.5889 4.31561 424.857 -45.5889 4.31561 424.857
1422 1 -53.338 4.30953 425.128 -53.338 4.30953 425.128
1173 1 -31.0627 0.73718 418.629 -31.0627 0.73718 418.629
2293 1 -49.7662 1.09116 437.866 -49.7662 1.09116 437.866
2289 1 -52.1023 0.356456 437.611 -52.1023 0.356456 437.611
2295 1 -48.1672 4.01707 439.164 -48.1672 4.01707 439.164
1465 1 -30.1956 1.4285 420.97 -30.1956 1.4285 420.97
2315 1 -36.6073 0.380105 437.07 -36.6073 0.380105 437.07
2331 1 -28.2247 4.15593 432.407 -28.2247 4.15593 432.407
2297 1 -47.4302 1.82606 438.122 -47.4302 1.82606 438.122
2324 1 -31.1895 4.07897 436.555 -31.1895 4.07897 436.555
2306 1 -42.0204 1.1044 437.593 -42.0204 1.1044 437.593
2285 1 -53.5757 0.31086 439.695 -53.5757 0.31086 439.695
1462 1 -31.6726 1.38983 423.045 -31.6726 1.38983 423.045
1751 1 -29.9456 2.77241 427.727 -29.9456 2.77241 427.727
2329 1 -28.9658 1.92309 433.443 -28.9658 1.92309 433.443
2042 1 -29.0844 3.46402 430.067 -29.0844 3.46402 430.067
2041 1 -29.825 1.23103 431.104 -29.825 1.23103 431.104
2593 1 -42.7584 3.2961 438.635 -42.7584 3.2961 438.635
2328 1 -28.8498 0.382814 436.819 -28.8498 0.382814 436.819
2301 1 -45.0943 2.56109 438.378 -45.0943 2.56109 438.378
1466 1 -29.4573 3.66143 419.932 -29.4573 3.66143 419.932
2298 1 -47.5538 3.37251 434.741 -47.5538 3.37251 434.741
2321 1 -33.5287 3.347 436.292 -33.5287 3.347 436.292
2313 1 -38.2055 1.88125 435.771 -38.2055 1.88125 435.771
2294 1 -49.029 3.32757 436.825 -49.029 3.32757 436.825
2304 1 -43.6186 2.60552 436.295 -43.6186 2.60552 436.295
2300 1 -45.9551 1.87098 436.039 -45.9551 1.87098 436.039
2290 1 -51.3652 2.59292 436.569 -51.3652 2.59292 436.569
2318 1 -35.1273 0.420999 434.992 -35.1273 0.420999 434.992
2327 1 -29.7071 4.11765 434.48 -29.7071 4.11765 434.48
2004 1 -49.8904 2.63812 434.485 -49.8904 2.63812 434.485
2013 1 -44.479 1.91509 433.956 -44.479 1.91509 433.956
2288 1 -52.9643 4.09486 435.272 -52.9643 4.09486 435.272
2037 1 -32.166 0.500356 430.839 -32.166 0.500356 430.839
1739 1 -37.8324 4.31698 424.596 -37.8324 4.31698 424.596
1753 1 -29.2058 0.578015 426.689 -29.2058 0.578015 426.689
2307 1 -42.1417 2.64897 434.214 -42.1417 2.64897 434.214
2314 1 -37.4659 4.11576 434.731 -37.4659 4.11576 434.731
2040 1 -30.6856 0.53931 428.764 -30.6856 0.53931 428.764
2320 1 -34.387 2.65482 433.953 -34.387 2.65482 433.953
2292 1 -50.6279 0.401846 435.527 -50.6279 0.401846 435.527
2311 1 -39.804 3.38257 434.472 -39.804 3.38257 434.472
2302 1 -45.2172 4.10687 434.998 -45.2172 4.10687 434.998
2296 1 -48.2915 1.13639 435.783 -48.2915 1.13639 435.783
1463 1 -31.8005 2.93171 419.666 -31.8005 2.93171 419.666
2287 1 -52.8391 2.5474 438.653 -52.8391 2.5474 438.653
2291 1 -50.503 3.28209 438.909 -50.503 3.28209 438.909
2317 1 -35.8674 2.61441 436.031 -35.8674 2.61441 436.031
2038 1 -31.4258 2.7336 429.802 -31.4258 2.7336 429.802
2305 1 -42.8803 0.413645 435.254 -42.8803 0.413645 435.254
2332 1 -27.3663 0.420752 434.746 -27.3663 0.420752 434.746
1468 1 -28.7191 1.46683 418.895 -28.7191 1.46683 418.895
1454 1 -36.3563 4.35687 422.518 -36.3563 4.35687 422.518
1429 1 -50.3937 4.39754 420.96 -50.3937 4.39754 420.96
1175 1 -30.325 2.96999 417.591 -30.325 2.96999 417.591
2616 1 -29.4776 1.03755 441.231 -29.4776 1.03755 441.231
2901 1 -30.9598 0.997918 443.307 -30.9598 0.997918 443.307
2907 1 -27.8814 3.96409 442.532 -27.8814 3.96409 442.532
3194 1 -28.5107 0.190971 446.945 -28.5107 0.190971 446.945
2587 1 -45.8316 0.324797 439.42 -45.8316 0.324797 439.42
2597 1 -40.4224 4.03095 438.892 -40.4224 4.03095 438.892
2584 1 -47.3047 0.279094 441.504 -47.3047 0.279094 441.504
2581 1 -48.7758 0.232865 443.589 -48.7758 0.232865 443.589
2868 1 -50.2448 0.186493 445.674 -50.2448 0.186493 445.674
2865 1 -51.7119 0.14042 447.76 -51.7119 0.14042 447.76
2601 1 -38.0861 0.338041 439.15 -38.0861 0.338041 439.15
2598 1 -39.563 0.294602 441.231 -39.563 0.294602 441.231
2885 1 -41.0374 0.249737 443.314 -41.0374 0.249737 443.314
2882 1 -42.5088 0.203617 445.399 -42.5088 0.203617 445.399
2879 1 -43.9768 0.15666 447.485 -43.9768 0.15666 447.485
2612 1 -31.8153 0.304893 440.969 -31.8153 0.304893 440.969
2898 1 -33.2957 0.263934 443.046 -33.2957 0.263934 443.046
2895 1 -34.7732 0.221022 445.127 -34.7732 0.221022 445.127
3180 1 -36.2467 0.175956 447.21 -36.2467 0.175956 447.21
2576 1 -51.9757 3.23631 440.993 -51.9757 3.23631 440.993
2574 1 -53.447 3.1905 443.078 -53.447 3.1905 443.078
2589 1 -44.2332 3.25122 440.718 -44.2332 3.25122 440.718
2586 1 -45.7058 3.20539 442.802 -45.7058 3.20539 442.802
2874 1 -47.176 3.15893 444.887 -47.176 3.15893 444.887
2871 1 -48.6437 3.11227 446.973 -48.6437 3.11227 446.973
3155 1 -50.1092 3.06592 449.059 -50.1092 3.06592 449.059
2607 1 -35.0095 3.30655 438.369 -35.0095 3.30655 438.369
2604 1 -36.4888 3.26482 440.448 -36.4888 3.26482 440.448
2600 1 -37.9659 3.22156 442.529 -37.9659 3.22156 442.529
2887 1 -39.4401 3.17666 444.612 -39.4401 3.17666 444.612
2884 1 -40.9106 3.13032 446.698 -40.9106 3.13032 446.698
3168 1 -42.3774 3.08303 448.784 -42.3774 3.08303 448.784
2900 1 -31.7 3.19114 444.346 -31.7 3.19114 444.346
2897 1 -33.1777 3.14843 446.426 -33.1777 3.14843 446.426
2582 1 -48.9038 1.78048 440.206 -48.9038 1.78048 440.206
2579 1 -50.3758 1.73448 442.291 -50.3758 1.73448 442.291
2866 1 -51.846 1.6884 444.376 -51.846 1.6884 444.376
2578 1 -51.2396 1.04549 439.951 -51.2396 1.04549 439.951
2595 1 -41.1606 1.79526 439.933 -41.1606 1.79526 439.933
2592 1 -42.6352 1.75039 442.016 -42.6352 1.75039 442.016
2880 1 -44.1072 1.70444 444.1 -44.1072 1.70444 444.1
2877 1 -45.5763 1.65774 446.186 -45.5763 1.65774 446.186
2873 1 -47.0426 1.61081 448.272 -47.0426 1.61081 448.272
2609 1 -33.4121 1.80567 439.669 -33.4121 1.80567 439.669
2606 1 -34.892 1.76431 441.747 -34.892 1.76431 441.747
2892 1 -36.3693 1.72121 443.828 -36.3693 1.72121 443.828
2890 1 -37.8431 1.67624 445.911 -37.8431 1.67624 445.911
3174 1 -39.3128 1.62961 447.996 -39.3128 1.62961 447.996
2618 1 -28.7358 3.27055 440.194 -28.7358 3.27055 440.194
2585 1 -46.5684 2.51576 440.462 -46.5684 2.51576 440.462
2583 1 -48.0405 2.46975 442.546 -48.0405 2.46975 442.546
2870 1 -49.5106 2.4234 444.632 -49.5106 2.4234 444.632
2867 1 -50.9786 2.37712 446.717 -50.9786 2.37712 446.717
2863 1 -52.4447 2.33136 448.803 -52.4447 2.33136 448.803
2599 1 -38.8249 2.53023 440.19 -38.8249 2.53023 440.19
2596 1 -40.3006 2.48607 442.272 -40.3006 2.48607 442.272
2883 1 -41.7735 2.44054 444.356 -41.7735 2.44054 444.356
2881 1 -43.2432 2.39393 446.442 -43.2432 2.39393 446.442
3164 1 -44.7096 2.34678 448.528 -44.7096 2.34678 448.528
2610 1 -32.5558 2.49836 442.007 -32.5558 2.49836 442.007
2896 1 -34.0349 2.45647 444.086 -34.0349 2.45647 444.086
2893 1 -35.5105 2.41248 446.168 -35.5105 2.41248 446.168
3178 1 -36.9817 2.36639 448.252 -36.9817 2.36639 448.252
2575 1 -52.7116 0.99966 442.035 -52.7116 0.99966 442.035
2591 1 -43.4961 1.06006 439.676 -43.4961 1.06006 439.676
2588 1 -44.9698 1.01468 441.76 -44.9698 1.01468 441.76
2876 1 -46.4412 0.968489 443.844 -46.4412 0.968489 443.844
2872 1 -47.9102 0.921868 445.93 -47.9102 0.921868 445.93
2869 1 -49.3767 0.875299 448.016 -49.3767 0.875299 448.016
2605 1 -35.7494 1.07214 439.409 -35.7494 1.07214 439.409
2602 1 -37.2277 1.02967 441.489 -37.2277 1.02967 441.489
2889 1 -38.7034 0.985582 443.571 -38.7034 0.985582 443.571
2886 1 -40.1758 0.939919 445.655 -40.1758 0.939919 445.655
3170 1 -41.6445 0.893027 447.741 -41.6445 0.893027 447.741
2899 1 -32.4393 0.956359 445.385 -32.4393 0.956359 445.385
3184 1 -33.9149 0.912418 447.467 -33.9149 0.912418 447.467
2580 1 -49.64 3.97124 441.248 -49.64 3.97124 441.248
2577 1 -51.1111 3.92515 443.333 -51.1111 3.92515 443.333
2864 1 -52.5804 3.87917 445.418 -52.5804 3.87917 445.418
2862 1 -53.3144 1.64262 446.461 -53.3144 1.64262 446.461
2594 1 -41.8982 3.9867 440.974 -41.8982 3.9867 440.974
2590 1 -43.3715 3.94126 443.058 -43.3715 3.94126 443.058
2878 1 -44.8421 3.89488 445.143 -44.8421 3.89488 445.143
2875 1 -46.3098 3.848 447.229 -46.3098 3.848 447.229
3159 1 -47.7748 3.80117 449.316 -47.7748 3.80117 449.316
2611 1 -32.6715 4.03953 438.63 -32.6715 4.03953 438.63
2608 1 -34.1523 3.99891 440.708 -34.1523 3.99891 440.708
2894 1 -35.631 3.95672 442.787 -35.631 3.95672 442.787
2891 1 -37.1067 3.91269 444.869 -37.1067 3.91269 444.869
2888 1 -38.5785 3.86683 446.953 -38.5785 3.86683 446.953
2904 1 -29.3645 3.92502 444.607 -29.3645 3.92502 444.607
2621 1 -27.2517 3.30844 438.121 -27.2517 3.30844 438.121
2617 1 -29.5914 2.5774 437.856 -29.5914 2.5774 437.856
2614 1 -31.0743 2.5385 439.931 -31.0743 2.5385 439.931
2908 1 -27.0281 0.230501 444.87 -27.0281 0.230501 444.87
2619 1 -27.9938 1.07586 439.157 -27.9938 1.07586 439.157
2906 1 -27.7698 2.42476 445.907 -27.7698 2.42476 445.907
2905 1 -28.6232 1.73105 443.569 -28.6232 1.73105 443.569
2620 1 -27.1392 1.76934 441.496 -27.1392 1.76934 441.496
3190 1 -30.8445 3.88382 446.685 -30.8445 3.88382 446.685
2902 1 -30.105 1.691 445.645 -30.105 1.691 445.645
2903 1 -30.219 3.23166 442.269 -30.219 3.23166 442.269
2615 1 -30.333 0.344348 438.893 -30.333 0.344348 438.893
2909 1 -26.2858 2.46322 443.834 -26.2858 2.46322 443.834
14 1 -49.8457 0.415678 398.703 -49.8457 4.84313 398.703
7 1 -54.401 3.36354 398.286 -54.401 3.36354 398.286
25 1 -42.043 0.415036 398.369 -42.043 4.84249 398.369
38 1 -34.226 0.351768 398.068 -34.226 4.77922 398.068
23 1 -43.5023 0.364176 400.435 -43.5023 4.79163 400.435
287 1 -46.42 0.287393 404.568 -46.42 4.71485 404.568
878 1 -36.7542 0.127751 412.378 -36.7542 4.5552 412.378
579 1 -43.0499 0.173156 410.552 -43.0499 4.60061 410.552
585 1 -40.1164 0.245992 406.394 -40.1164 4.67344 406.394
290 1 -44.9629 0.32494 402.494 -44.9629 4.75239 402.494
11 1 -51.2609 0.353701 400.71 -51.2609 4.78115 400.71
595 1 -33.8132 0.200582 408.224 -33.8132 4.62803 408.224
283 1 -47.8807 0.25213 406.646 -47.8807 4.67958 406.646
582 1 -41.583 0.210162 408.473 -41.583 4.63761 408.473
276 1 -52.7281 0.337304 402.753 -52.7281 4.76476 402.753
569 1 -49.3423 0.216214 408.727 -49.3423 4.64367 408.727
847 1 -53.7336 0.0965683 414.978 -53.7336 4.52402 414.978
272 1 -54.1768 0.304527 404.824 -54.1768 4.73198 404.824
35 1 -35.707 0.341184 400.152 -35.707 4.76864 400.152
598 1 -32.3422 0.235349 406.149 -32.3422 4.6628 406.149
850 1 -52.2683 0.137843 412.893 -52.2683 4.5653 412.893
304 1 -37.1807 0.314152 402.237 -37.1807 4.7416 402.237
301 1 -38.6495 0.280656 404.316 -38.6495 4.70811 404.316
314 1 -30.8702 0.268869 404.076 -30.8702 4.69632 404.076
864 1 -44.5171 0.134896 412.632 -44.5171 4.56235 412.632
566 1 -50.8044 0.177675 410.81 -50.8044 4.60513 410.81
1176 1 -30.4575 0.0832869 414.211 -30.4575 4.51074 414.211
85 1 -5.56981 1.19046 393.713 -5.56981 1.19046 393.713
58 1 -22.5979 1.099 396.122 -22.5979 1.099 396.122
45 1 -30.4413 1.1562 396.417 -30.4413 1.1562 396.417
49 1 -28.042 1.83775 396.616 -28.042 1.83775 396.616
72 1 -14.1104 3.37222 394.94 -14.1104 3.37222 394.94
80 1 -8.6333 2.61416 394.433 -8.6333 2.61416 394.433
75 1 -11.713 4.05842 395.144 -11.713 4.05842 395.144
83 1 -6.29094 3.38882 394.646 -6.29094 3.38882 394.646
52 1 -25.7059 2.61662 396.858 -25.7059 2.61662 396.858
61 1 -20.2621 1.87923 396.366 -20.2621 1.87923 396.366
63 1 -19.5524 4.10688 395.429 -19.5524 4.10688 395.429
87 1 -3.91649 4.07661 394.865 -3.91649 4.07661 394.865
70 1 -14.8182 1.14468 395.877 -14.8182 1.14468 395.877
47 1 -28.7833 4.03863 397.569 -28.7833 4.03863 397.569
912 1 -16.5132 1.57553 412.454 -16.5132 1.57553 412.454