ITEM: TIMESTEP
0
ITEM: NUMBER OF ATOMS
4630
ITEM: BOX BOUNDS xy xz yz pp pp pp
-6.1640988501799995e+01 1.0466002035000000e+02 0.0000000000000000e+00
0.0000000000000000e+00 4.4274527100805940e+00 0.0000000000000000e+00
3.8000000000000000e+02 5.0000000000000000e+02 0.0000000000000000e+00
ITEM: ATOMS id type x y z xu yu zu
27 1 -44.4073 2.42195 399.03 -44.4073 2.42195 399.03
36 1 -38.904 1.67736 399.084 -38.904 1.67736 399.084
31 1 -42.0332 3.105 399.468 -42.0332 3.105 399.468
22 1 -47.5415 3.85665 399.445 -47.5415 3.85665 399.445
20 1 -48.3758 1.63839 400.31 -48.3758 1.63839 400.31
40 1 -36.5328 2.36256 399.527 -36.5328 2.36256 399.527
34 1 -39.7176 3.87705 399.938 -39.7176 3.87705 399.938
17 1 -50.6966 0.881793 399.849 -50.6966 0.881793 399.849
9 1 -56.1547 1.56433 399.768 -56.1547 1.56433 399.768
43 1 -34.2193 3.13555 399.999 -34.2193 3.13555 399.999
12 1 -53.8719 2.39506 400.265 -53.8719 2.39506 400.265
5 1 -58.5208 0.918993 399.312 -58.5208 0.918993 399.312
29 1 -42.8764 0.877724 400.336 -42.8764 0.877724 400.336
853 1 -55.5374 2.91181 414.636 -55.5374 2.91181 414.636
873 1 -44.5593 1.43319 414.747 -44.5593 1.43319 414.747
865 1 -48.5695 0.67613 416.147 -48.5695 0.67613 416.147
1174 1 -36.1113 2.12671 417.718 -36.1113 2.12671 417.718
883 1 -39.0692 0.692951 414.804 -39.0692 0.692951 414.804
863 1 -50.0492 2.17321 414.691 -50.0492 2.17321 414.691
315 1 -34.4303 1.58933 403.331 -34.4303 1.58933 403.331
307 1 -39.2894 3.03663 405.677 -39.2894 3.03663 405.677
1150 1 -50.2559 0.648677 418.051 -50.2559 0.648677 418.051
855 1 -54.058 1.415 416.092 -54.058 1.415 416.092
310 1 -37.6007 3.06282 403.778 -37.6007 3.06282 403.778
871 1 -45.4029 3.6335 415.699 -45.4029 3.6335 415.699
16 1 -51.5321 3.08234 400.72 -51.5321 3.08234 400.72
309 1 -37.8083 1.53932 407.132 -37.8083 1.53932 407.132
1156 1 -47.09 3.60645 417.603 -47.09 3.60645 417.603
867 1 -47.7261 2.90344 415.195 -47.7261 2.90344 415.195
1159 1 -44.7672 4.33667 418.107 -44.7672 4.33667 418.107
1168 1 -39.278 3.59689 418.164 -39.278 3.59689 418.164
1170 1 -38.4341 1.3965 417.212 -38.4341 1.3965 417.212
594 1 -38.6524 3.74008 408.084 -38.6524 3.74008 408.084
37 1 -38.2337 2.35463 401.387 -38.2337 2.35463 401.387
851 1 -56.3803 0.684355 415.588 -56.3803 0.684355 415.588
857 1 -53.215 3.64255 415.139 -53.215 3.64255 415.139
592 1 -39.4964 1.51317 409.035 -39.4964 1.51317 409.035
849 1 -57.2233 2.88434 416.541 -57.2233 2.88434 416.541
877 1 -42.2361 2.16323 415.251 -42.2361 2.16323 415.251
1143 1 -54.9009 3.61491 417.044 -54.9009 3.61491 417.044
1140 1 -56.5869 3.58722 418.949 -56.5869 3.58722 418.949
845 1 -59.5458 2.15405 416.037 -59.5458 2.15405 416.037
875 1 -43.0799 4.36358 416.203 -43.0799 4.36358 416.203
886 1 -37.3813 0.719488 412.901 -37.3813 0.719488 412.901
891 1 -34.2139 3.67623 412.455 -34.2139 3.67623 412.455
39 1 -36.7607 0.858007 402.82 -36.7607 0.858007 402.82
1177 1 -34.6326 0.629987 419.175 -34.6326 0.629987 419.175
1167 1 -40.1217 1.36978 419.116 -40.1217 1.36978 419.116
8 1 -57.0203 3.82634 400.742 -57.0203 3.82634 400.742
869 1 -46.2465 1.4063 416.651 -46.2465 1.4063 416.651
1136 1 -58.9092 2.85673 418.446 -58.9092 2.85673 418.446
1162 1 -43.288 2.8397 419.563 -43.288 2.8397 419.563
15 1 -52.3842 0.871195 401.716 -52.3842 0.871195 401.716
280 1 -54.072 0.84671 403.608 -54.072 0.84671 403.608
277 1 -55.7652 0.831408 405.504 -55.7652 0.831408 405.504
273 1 -57.4487 0.804066 407.409 -57.4487 0.804066 407.409
560 1 -59.1333 0.77626 409.316 -59.1333 0.77626 409.316
557 1 -60.8192 0.748988 411.221 -60.8192 0.748988 411.221
26 1 -44.5711 0.872488 402.25 -44.5711 0.872488 402.25
294 1 -46.262 0.849591 404.165 -46.262 0.849591 404.165
291 1 -47.9492 0.820423 406.069 -47.9492 0.820423 406.069
576 1 -49.6357 0.792289 407.972 -49.6357 0.792289 407.972
573 1 -51.3227 0.766052 409.874 -51.3227 0.766052 409.874
570 1 -53.0087 0.739222 411.778 -53.0087 0.739222 411.778
854 1 -54.6944 0.711805 413.683 -54.6944 0.711805 413.683
305 1 -40.1326 0.810018 406.627 -40.1326 0.810018 406.627
589 1 -41.8202 0.78339 408.531 -41.8202 0.78339 408.531
586 1 -43.5077 0.756644 410.435 -43.5077 0.756644 410.435
872 1 -45.1952 0.729944 412.339 -45.1952 0.729944 412.339
599 1 -35.6932 0.745816 410.998 -35.6932 0.745816 410.998
1132 1 -61.2316 2.12644 417.943 -61.2316 2.12644 417.943
4 1 -58.7368 3.83912 402.577 -58.7368 3.83912 402.577
268 1 -60.4067 3.79977 404.498 -60.4067 3.79977 404.498
1152 1 -49.4127 2.87616 417.099 -49.4127 2.87616 417.099
19 1 -49.2304 3.82523 401.263 -49.2304 3.82523 401.263
286 1 -50.909 3.79961 403.144 -50.909 3.79961 403.144
282 1 -52.5926 3.77803 405.055 -52.5926 3.77803 405.055
279 1 -54.2825 3.75819 406.958 -54.2825 3.75819 406.958
565 1 -55.968 3.73289 408.864 -55.968 3.73289 408.864
563 1 -57.6533 3.70583 410.771 -57.6533 3.70583 410.771
846 1 -59.3393 3.67877 412.676 -59.3393 3.67877 412.676
32 1 -41.4062 3.82904 401.827 -41.4062 3.82904 401.827
300 1 -43.0954 3.80508 403.721 -43.0954 3.80508 403.721
297 1 -44.7821 3.77834 405.622 -44.7821 3.77834 405.622
293 1 -46.4685 3.75127 407.525 -46.4685 3.75127 407.525
578 1 -48.1554 3.72401 409.428 -48.1554 3.72401 409.428
575 1 -49.8426 3.69725 411.331 -49.8426 3.69725 411.331
860 1 -51.529 3.67011 413.235 -51.529 3.67011 413.235
591 1 -40.3403 3.71358 409.987 -40.3403 3.71358 409.987
588 1 -42.0279 3.68694 411.891 -42.0279 3.68694 411.891
874 1 -43.7155 3.66027 413.795 -43.7155 3.66027 413.795
10 1 -55.5524 2.3335 402.159 -55.5524 2.3335 402.159
274 1 -57.251 2.33375 404.043 -57.251 2.33375 404.043
271 1 -58.9289 2.30256 405.954 -58.9289 2.30256 405.954
558 1 -60.613 2.27396 407.86 -60.613 2.27396 407.86
24 1 -46.0743 2.37362 400.842 -46.0743 2.37362 400.842
21 1 -47.7521 2.34511 402.713 -47.7521 2.34511 402.713
288 1 -49.4303 2.31526 404.614 -49.4303 2.31526 404.614
285 1 -51.1152 2.28658 406.517 -51.1152 2.28658 406.517
571 1 -52.8027 2.26196 408.418 -52.8027 2.26196 408.418
568 1 -54.4884 2.23579 410.322 -54.4884 2.23579 410.322
852 1 -56.1739 2.20861 412.227 -56.1739 2.20861 412.227
848 1 -57.8598 2.1814 414.132 -57.8598 2.1814 414.132
306 1 -39.9263 2.33158 403.27 -39.9263 2.33158 403.27
302 1 -41.6138 2.30667 405.17 -41.6138 2.30667 405.17
299 1 -43.3006 2.28049 407.075 -43.3006 2.28049 407.075
583 1 -44.9877 2.25386 408.979 -44.9877 2.25386 408.979
581 1 -46.6752 2.22706 410.883 -46.6752 2.22706 410.883
866 1 -48.3625 2.20033 412.787 -48.3625 2.20033 412.787
880 1 -40.5485 2.18991 413.347 -40.5485 2.18991 413.347
312 1 -36.1199 1.56488 405.229 -36.1199 1.56488 405.229
2 1 -60.233 0.929706 401.144 -60.233 0.929706 401.144
13 1 -53.2203 3.06888 402.641 -53.2203 3.06888 402.641
278 1 -54.918 3.05313 404.549 -54.918 3.05313 404.549
275 1 -56.6065 3.03193 406.454 -56.6065 3.03193 406.454
562 1 -58.2903 3.0037 408.362 -58.2903 3.0037 408.362
559 1 -59.9761 2.97633 410.268 -59.9761 2.97633 410.268
1166 1 -40.9655 3.57006 420.068 -40.9655 3.57006 420.068
889 1 -35.0581 1.44942 413.407 -35.0581 1.44942 413.407
28 1 -43.7313 3.09825 401.331 -43.7313 3.09825 401.331
296 1 -45.4213 3.07498 403.216 -45.4213 3.07498 403.216
292 1 -47.1067 3.04885 405.117 -47.1067 3.04885 405.117
289 1 -48.7921 3.02008 407.021 -48.7921 3.02008 407.021
574 1 -50.4792 2.99299 408.923 -50.4792 2.99299 408.923
572 1 -52.1658 2.96655 410.826 -52.1658 2.96655 410.826
856 1 -53.8516 2.93928 412.731 -53.8516 2.93928 412.731
303 1 -40.9768 3.01027 407.579 -40.9768 3.01027 407.579
587 1 -42.664 2.98368 409.483 -42.664 2.98368 409.483
584 1 -44.3514 2.95699 411.387 -44.3514 2.95699 411.387
870 1 -46.0389 2.93032 413.291 -46.0389 2.93032 413.291
6 1 -57.8876 1.63209 401.629 -57.8876 1.63209 401.629
270 1 -59.5679 1.60336 403.538 -59.5679 1.60336 403.538
267 1 -61.2486 1.57117 405.45 -61.2486 1.57117 405.45
890 1 -34.4232 2.15311 415.815 -34.4232 2.15311 415.815
18 1 -50.063 1.59992 402.208 -50.063 1.59992 402.208
284 1 -51.748 1.5767 404.109 -51.748 1.5767 404.109
281 1 -53.4383 1.55531 406.01 -53.4383 1.55531 406.01
567 1 -55.1258 1.53258 407.912 -55.1258 1.53258 407.912
564 1 -56.8106 1.50567 409.818 -56.8106 1.50567 409.818
561 1 -58.4963 1.4786 411.724 -58.4963 1.4786 411.724
844 1 -60.1824 1.45143 413.629 -60.1824 1.45143 413.629
33 1 -40.5774 1.62879 400.892 -40.5774 1.62879 400.892
30 1 -42.2573 1.60024 402.76 -42.2573 1.60024 402.76
298 1 -43.939 1.5774 404.666 -43.939 1.5774 404.666
295 1 -45.6251 1.55118 406.572 -45.6251 1.55118 406.572
580 1 -47.3119 1.52376 408.476 -47.3119 1.52376 408.476
577 1 -48.9991 1.49683 410.379 -48.9991 1.49683 410.379
862 1 -50.6859 1.47001 412.283 -50.6859 1.47001 412.283
590 1 -41.1841 1.48657 410.939 -41.1841 1.48657 410.939
876 1 -42.8717 1.45989 412.843 -42.8717 1.45989 412.843
1163 1 -42.4444 0.63947 418.611 -42.4444 0.63947 418.611
1153 1 -48.7766 3.57907 419.507 -48.7766 3.57907 419.507
311 1 -36.9634 3.76631 406.182 -36.9634 3.76631 406.182
42 1 -35.0786 0.887053 400.953 -35.0786 0.887053 400.953
1135 1 -59.7521 0.629124 419.399 -59.7521 0.629124 419.399
1171 1 -37.7991 2.10012 419.621 -37.7991 2.10012 419.621
1139 1 -57.4298 1.3596 419.902 -57.4298 1.3596 419.902
601 1 -34.8489 2.97256 410.047 -34.8489 2.97256 410.047
313 1 -35.2721 3.79257 404.278 -35.2721 3.79257 404.278
858 1 -52.372 1.44262 414.187 -52.372 1.44262 414.187
868 1 -46.8826 0.703208 414.243 -46.8826 0.703208 414.243
1147 1 -52.5785 4.34558 417.548 -52.5785 4.34558 417.548
843 1 -61.0254 3.65147 414.582 -61.0254 3.65147 414.582
593 1 -38.8607 2.21651 411.444 -38.8607 2.21651 411.444
308 1 -38.4448 0.835558 404.723 -38.4448 0.835558 404.723
861 1 -50.8923 4.37321 415.643 -50.8923 4.37321 415.643
1158 1 -45.6106 2.10938 419.059 -45.6106 2.10938 419.059
884 1 -38.2253 2.91996 413.852 -38.2253 2.91996 413.852
881 1 -39.9131 2.89336 415.756 -39.9131 2.89336 415.756
885 1 -37.5902 3.62352 416.261 -37.5902 3.62352 416.261
859 1 -51.7354 2.14568 416.595 -51.7354 2.14568 416.595
596 1 -37.1728 2.24289 409.541 -37.1728 2.24289 409.541
879 1 -40.757 0.666288 416.707 -40.757 0.666288 416.707
1172 1 -36.9553 4.32717 418.669 -36.9553 4.32717 418.669
1154 1 -47.9333 1.37907 418.555 -47.9333 1.37907 418.555
887 1 -36.7462 1.42305 415.309 -36.7462 1.42305 415.309
597 1 -36.5373 2.9464 411.949 -36.5373 2.9464 411.949
1161 1 -43.9236 2.13644 417.155 -43.9236 2.13644 417.155
1138 1 -58.0663 0.656829 417.493 -58.0663 0.656829 417.493
1149 1 -51.0991 2.84859 419.004 -51.0991 2.84859 419.004
41 1 -35.9092 3.08656 401.887 -35.9092 3.08656 401.887
888 1 -35.9022 3.64999 414.358 -35.9022 3.64999 414.358
1165 1 -41.6007 2.86663 417.659 -41.6007 2.86663 417.659
1141 1 -55.7439 1.38735 417.997 -55.7439 1.38735 417.997
1145 1 -53.4215 2.11799 418.5 -53.4215 2.11799 418.5
600 1 -35.4844 2.26888 407.639 -35.4844 2.26888 407.639
1148 1 -51.9422 0.621001 419.956 -51.9422 0.621001 419.956
882 1 -39.7046 4.41695 412.396 -39.7046 4.41695 412.396
1157 1 -46.454 4.30947 420.011 -46.454 4.30947 420.011
1144 1 -54.2645 4.31783 419.453 -54.2645 4.31783 419.453
602 1 -34.0045 0.771806 409.096 -34.0045 0.771806 409.096
1131 1 -61.4376 0.601207 421.304 -61.4376 0.601207 421.304
1755 1 -34.4166 2.71494 428.304 -34.4166 2.71494 428.304
1460 1 -38.8517 2.77689 423.933 -38.8517 2.77689 423.933
2308 1 -48.3297 3.31336 437.771 -48.3297 3.31336 437.771
2316 1 -43.4819 1.8733 435.417 -43.4819 1.8733 435.417
2312 1 -46.0087 4.04475 438.275 -46.0087 4.04475 438.275
1464 1 -36.5295 3.50754 424.438 -36.5295 3.50754 424.438
1461 1 -38.008 0.576651 422.981 -38.008 0.576651 422.981
2039 1 -37.1547 3.36391 434.521 -37.1547 3.36391 434.521
2613 1 -39.0466 1.81168 439.788 -39.0466 1.81168 439.788
1467 1 -34.2074 4.23819 424.944 -34.2074 4.23819 424.944
2603 1 -44.5299 2.54834 439.732 -44.5299 2.54834 439.732
1443 1 -48.1405 4.28198 421.916 -48.1405 4.28198 421.916
1748 1 -38.2167 3.4805 426.342 -38.2167 3.4805 426.342
2023 1 -45.803 1.14199 434.913 -45.803 1.14199 434.913
2310 1 -46.8507 1.81689 439.228 -46.8507 1.81689 439.228
1151 1 -49.6197 1.35155 420.46 -49.6197 1.35155 420.46
2303 1 -51.4928 0.35412 438.221 -51.4928 0.35412 438.221
2299 1 -53.8141 4.05028 437.717 -53.8141 4.05028 437.717
2033 1 -40.3184 0.404919 434.969 -40.3184 0.404919 434.969
1433 1 -53.6281 0.593176 421.861 -53.6281 0.593176 421.861
1430 1 -55.3139 0.565208 423.766 -55.3139 0.565208 423.766
1426 1 -56.9993 0.537095 425.672 -56.9993 0.537095 425.672
1713 1 -58.6845 0.508852 427.578 -58.6845 0.508852 427.578
1710 1 -60.3694 0.480508 429.484 -60.3694 0.480508 429.484
2330 1 -35.0414 2.57125 438.388 -35.0414 2.57125 438.388
1160 1 -44.1315 0.612412 420.515 -44.1315 0.612412 420.515
1447 1 -45.8182 0.585075 422.42 -45.8182 0.585075 422.42
1444 1 -47.5046 0.557484 424.324 -47.5046 0.557484 424.324
1730 1 -49.1905 0.529676 426.229 -49.1905 0.529676 426.229
1727 1 -50.8761 0.50168 428.135 -50.8761 0.50168 428.135
1724 1 -52.5614 0.473525 430.04 -52.5614 0.473525 430.04
2008 1 -54.2463 0.445242 431.946 -54.2463 0.445242 431.946
2006 1 -55.9309 0.416872 433.852 -55.9309 0.416872 433.852
1458 1 -39.6952 0.549602 424.885 -39.6952 0.549602 424.885
1743 1 -41.3819 0.52228 426.789 -41.3819 0.52228 426.789
1740 1 -43.0682 0.494698 428.694 -43.0682 0.494698 428.694
2026 1 -44.754 0.466886 430.599 -44.754 0.466886 430.599
2022 1 -46.4393 0.438882 432.504 -46.4393 0.438882 432.504
2019 1 -48.1242 0.410724 434.409 -48.1242 0.410724 434.409
2309 1 -47.4875 1.11377 436.819 -47.4875 1.11377 436.819
1137 1 -58.2726 3.55939 420.854 -58.2726 3.55939 420.854
1421 1 -59.9581 3.5314 422.76 -59.9581 3.5314 422.76
1439 1 -50.4628 3.55143 421.412 -50.4628 3.55143 421.412
1435 1 -52.1488 3.5236 423.317 -52.1488 3.5236 423.317
1432 1 -53.8345 3.49562 425.222 -53.8345 3.49562 425.222
1719 1 -55.5199 3.46748 427.128 -55.5199 3.46748 427.128
1716 1 -57.205 3.43921 429.034 -57.205 3.43921 429.034
2001 1 -58.8899 3.41085 430.939 -58.8899 3.41085 430.939
1998 1 -60.5745 3.38244 432.846 -60.5745 3.38244 432.846
2323 1 -38.8402 3.33604 436.426 -38.8402 3.33604 436.426
1453 1 -42.6526 3.543 421.972 -42.6526 3.543 421.972
1450 1 -44.3393 3.51567 423.876 -44.3393 3.51567 423.876
1446 1 -46.0256 3.48809 425.781 -46.0256 3.48809 425.781
1732 1 -47.7116 3.46028 427.686 -47.7116 3.46028 427.686
1729 1 -49.3971 3.43228 429.591 -49.3971 3.43228 429.591
2014 1 -51.0822 3.40413 431.496 -51.0822 3.40413 431.496
2011 1 -52.767 3.37584 433.402 -52.767 3.37584 433.402
1745 1 -39.9034 3.45319 428.246 -39.9034 3.45319 428.246
1742 1 -41.5896 3.4256 430.15 -41.5896 3.4256 430.15
2028 1 -43.2753 3.39778 432.055 -43.2753 3.39778 432.055
2025 1 -44.9606 3.36977 433.96 -44.9606 3.36977 433.96
1427 1 -56.7932 2.06228 422.31 -56.7932 2.06228 422.31
1424 1 -58.4787 2.03422 424.216 -58.4787 2.03422 424.216
1711 1 -60.1639 2.00601 426.122 -60.1639 2.00601 426.122
2322 1 -39.6826 1.10831 437.378 -39.6826 1.10831 437.378
1750 1 -36.7384 1.98405 427.799 -36.7384 1.98405 427.799
1155 1 -47.2973 2.08203 420.963 -47.2973 2.08203 420.963
1441 1 -48.9836 2.05442 422.868 -48.9836 2.05442 422.868
1438 1 -50.6696 2.02661 424.773 -50.6696 2.02661 424.773
1725 1 -52.3553 1.99861 426.678 -52.3553 1.99861 426.678
1722 1 -54.0406 1.97046 428.584 -54.0406 1.97046 428.584
1718 1 -55.7256 1.94219 430.49 -55.7256 1.94219 430.49
2003 1 -57.4104 1.91382 432.396 -57.4104 1.91382 432.396
2000 1 -59.0948 1.8854 434.301 -59.0948 1.8854 434.301
1459 1 -39.4867 2.07331 421.524 -39.4867 2.07331 421.524
1455 1 -41.1738 2.04625 423.428 -41.1738 2.04625 423.428
1452 1 -42.8605 2.01892 425.332 -42.8605 2.01892 425.332
1737 1 -44.5468 1.99134 427.237 -44.5468 1.99134 427.237
1735 1 -46.2327 1.96353 429.142 -46.2327 1.96353 429.142
2020 1 -47.9181 1.93553 431.047 -47.9181 1.93553 431.047
2017 1 -49.6032 1.90738 432.953 -49.6032 1.90738 432.953
2034 1 -40.1112 1.92914 431.607 -40.1112 1.92914 431.607
2031 1 -41.7968 1.90131 433.512 -41.7968 1.90131 433.512
2029 1 -42.6394 4.10105 434.464 -42.6394 4.10105 434.464
1146 1 -52.7852 2.82083 420.909 -52.7852 2.82083 420.909
1431 1 -54.471 2.79294 422.814 -54.471 2.79294 422.814
1428 1 -56.1566 2.7649 424.719 -56.1566 2.7649 424.719
1715 1 -57.8419 2.73671 426.625 -57.8419 2.73671 426.625
1712 1 -59.527 2.70842 428.531 -59.527 2.70842 428.531
1708 1 -61.2118 2.68004 430.437 -61.2118 2.68004 430.437
1747 1 -38.4251 1.95673 429.703 -38.4251 1.95673 429.703
1449 1 -44.9749 2.8125 421.467 -44.9749 2.8125 421.467
1445 1 -46.6614 2.78503 423.372 -46.6614 2.78503 423.372
1442 1 -48.3476 2.75733 425.277 -48.3476 2.75733 425.277
1728 1 -50.0334 2.72943 427.182 -50.0334 2.72943 427.182
1726 1 -51.7188 2.70135 429.087 -51.7188 2.70135 429.087
2010 1 -53.4039 2.67312 430.993 -53.4039 2.67312 430.993
2007 1 -55.0886 2.64479 432.899 -55.0886 2.64479 432.899
1456 1 -40.5386 2.7497 425.837 -40.5386 2.7497 425.837
1741 1 -42.2251 2.72225 427.741 -42.2251 2.72225 427.741
1738 1 -43.9111 2.69455 429.646 -43.9111 2.69455 429.646
2024 1 -45.5967 2.66663 431.551 -45.5967 2.66663 431.551
2021 1 -47.2818 2.63855 433.456 -47.2818 2.63855 433.456
2035 1 -39.4757 2.63259 434.016 -39.4757 2.63259 434.016
1754 1 -35.0512 2.01106 425.895 -35.0512 2.01106 425.895
1423 1 -59.1154 1.33169 421.807 -59.1154 1.33169 421.807
1420 1 -60.8008 1.30361 423.713 -60.8008 1.30361 423.713
2044 1 -33.9908 1.8953 434.074 -33.9908 1.8953 434.074
1437 1 -51.3059 1.32381 422.365 -51.3059 1.32381 422.365
1434 1 -52.9917 1.2959 424.27 -52.9917 1.2959 424.27
1721 1 -54.6773 1.26784 426.175 -54.6773 1.26784 426.175
1717 1 -56.3625 1.23963 428.081 -56.3625 1.23963 428.081
1714 1 -58.0475 1.21131 429.987 -58.0475 1.21131 429.987
1999 1 -59.7322 1.18292 431.892 -59.7322 1.18292 431.892
1997 1 -61.4167 1.1545 433.799 -61.4167 1.1545 433.799
1164 1 -41.8091 1.34284 421.02 -41.8091 1.34284 421.02
1451 1 -43.496 1.31564 422.924 -43.496 1.31564 422.924
1448 1 -45.1825 1.28818 424.828 -45.1825 1.28818 424.828
1734 1 -46.8686 1.26048 426.733 -46.8686 1.26048 426.733
1731 1 -48.5544 1.23258 428.638 -48.5544 1.23258 428.638
2016 1 -50.2397 1.2045 430.544 -50.2397 1.2045 430.544
2012 1 -51.9247 1.17627 432.449 -51.9247 1.17627 432.449
2009 1 -53.6093 1.14794 434.355 -53.6093 1.14794 434.355
1746 1 -39.0601 1.25315 427.294 -39.0601 1.25315 427.294
1744 1 -40.7466 1.2257 429.198 -40.7466 1.2257 429.198
2030 1 -42.4325 1.19799 431.103 -42.4325 1.19799 431.103
2027 1 -44.118 1.17007 433.008 -44.118 1.17007 433.008
2325 1 -37.9975 1.13627 435.473 -37.9975 1.13627 435.473
1749 1 -37.5818 4.18415 428.751 -37.5818 4.18415 428.751
1425 1 -57.636 4.26199 423.263 -57.636 4.26199 423.263
1736 1 -45.3898 4.19119 428.189 -45.3898 4.19119 428.189
1142 1 -55.1075 2.0902 420.405 -55.1075 2.0902 420.405
1720 1 -54.8832 4.17007 429.537 -54.8832 4.17007 429.537
2005 1 -56.568 4.14174 431.443 -56.568 4.14174 431.443
2002 1 -58.2526 4.11334 433.348 -58.2526 4.11334 433.348
1169 1 -38.6429 4.30047 420.573 -38.6429 4.30047 420.573
1723 1 -53.198 4.19828 427.631 -53.198 4.19828 427.631
1440 1 -49.8267 4.25427 423.821 -49.8267 4.25427 423.821
1733 1 -47.0755 4.16328 430.095 -47.0755 4.16328 430.095
2018 1 -48.7607 4.1352 432 -48.7607 4.1352 432
2015 1 -50.4455 4.10698 433.905 -50.4455 4.10698 433.905
2036 1 -39.2682 4.1567 430.655 -39.2682 4.1567 430.655
2032 1 -40.9541 4.12898 432.56 -40.9541 4.12898 432.56
2326 1 -37.362 1.83976 437.883 -37.362 1.83976 437.883
1752 1 -35.8948 4.21132 426.847 -35.8948 4.21132 426.847
1457 1 -40.3303 4.27354 422.476 -40.3303 4.27354 422.476
2043 1 -34.6255 1.19149 431.665 -34.6255 1.19149 431.665
2286 1 -60.7791 1.85699 436.208 -60.7791 1.85699 436.208
2319 1 -41.3672 1.08019 439.284 -41.3672 1.08019 439.284
1436 1 -51.5125 4.22636 425.726 -51.5125 4.22636 425.726
1422 1 -59.3213 4.23386 425.169 -59.3213 4.23386 425.169
1173 1 -36.3205 0.603437 421.078 -36.3205 0.603437 421.078
2293 1 -56.9776 1.09115 438.167 -56.9776 1.09115 438.167
2289 1 -59.2993 0.360052 437.664 -59.2993 0.360052 437.664
2295 1 -55.498 4.02189 439.623 -55.498 4.02189 439.623
1465 1 -35.6858 1.30722 423.487 -35.6858 1.30722 423.487
2315 1 -43.6878 0.348725 438.779 -43.6878 0.348725 438.779
2331 1 -34.8338 4.09524 435.026 -34.8338 4.09524 435.026
2297 1 -54.6561 1.82236 438.67 -54.6561 1.82236 438.67
2324 1 -38.2044 4.03947 438.836 -38.2044 4.03947 438.836
2306 1 -49.1717 1.08548 438.724 -49.1717 1.08548 438.724
2285 1 -60.9833 0.331701 439.57 -60.9833 0.331701 439.57
1462 1 -37.3732 1.28033 425.39 -37.3732 1.28033 425.39
1751 1 -36.1036 2.68778 430.208 -36.1036 2.68778 430.208
2329 1 -35.6767 1.86766 435.978 -35.6767 1.86766 435.978
2042 1 -35.4687 3.39152 432.617 -35.4687 3.39152 432.617
2041 1 -36.3118 1.16402 433.569 -36.3118 1.16402 433.569
2593 1 -50.0136 3.28505 439.677 -50.0136 3.28505 439.677
2328 1 -35.8839 0.343525 439.34 -35.8839 0.343525 439.34
2301 1 -52.3347 2.55367 439.174 -52.3347 2.55367 439.174
1466 1 -34.8419 3.53429 422.535 -34.8419 3.53429 422.535
2298 1 -54.4515 3.34748 435.308 -54.4515 3.34748 435.308
2321 1 -40.525 3.30799 438.331 -40.525 3.30799 438.331
2313 1 -45.1665 1.84514 437.323 -45.1665 1.84514 437.323
2294 1 -56.1356 3.31908 437.214 -56.1356 3.31908 437.214
2304 1 -50.6508 2.58202 437.268 -50.6508 2.58202 437.268
2300 1 -52.9721 1.85074 436.764 -52.9721 1.85074 436.764
2290 1 -58.4573 2.58798 436.711 -58.4573 2.58798 436.711
2318 1 -42.0034 0.376888 436.874 -42.0034 0.376888 436.874
2327 1 -36.5194 4.06746 436.931 -36.5194 4.06746 436.931
2004 1 -56.7731 2.61639 434.805 -56.7731 2.61639 434.805
2013 1 -51.2878 1.8791 434.858 -51.2878 1.8791 434.858
2288 1 -59.937 4.08492 435.255 -59.937 4.08492 435.255
2037 1 -38.6329 0.432762 433.064 -38.6329 0.432762 433.064
1739 1 -43.7037 4.21889 426.285 -43.7037 4.21889 426.285
1753 1 -35.2602 0.487674 429.256 -35.2602 0.487674 429.256
2307 1 -48.9665 2.61033 435.362 -48.9665 2.61033 435.362
2314 1 -44.3243 4.07296 436.37 -44.3243 4.07296 436.37
2040 1 -36.9468 0.460361 431.16 -36.9468 0.460361 431.16
2320 1 -41.161 2.60465 435.921 -41.161 2.60465 435.921
2292 1 -57.6152 0.388459 435.758 -57.6152 0.388459 435.758
2311 1 -46.6453 3.34162 435.866 -46.6453 3.34162 435.866
2302 1 -52.13 4.07865 435.811 -52.13 4.07865 435.811
2296 1 -55.2936 1.11955 436.261 -55.2936 1.11955 436.261
1463 1 -37.1643 2.8038 422.03 -37.1643 2.8038 422.03
2287 1 -60.1413 2.55959 438.617 -60.1413 2.55959 438.617
2291 1 -57.8195 3.29068 439.12 -57.8195 3.29068 439.12
2317 1 -42.8457 2.57655 437.827 -42.8457 2.57655 437.827
2038 1 -37.7899 2.66032 432.112 -37.7899 2.66032 432.112
2305 1 -49.8087 0.382455 436.315 -49.8087 0.382455 436.315
2332 1 -34.1988 0.371466 437.436 -34.1988 0.371466 437.436
1709 1 -61.0065 4.20559 427.075 -61.0065 4.20559 427.075
1468 1 -33.998 1.33385 421.584 -33.998 1.33385 421.584
1454 1 -42.0172 4.24635 424.38 -42.0172 4.24635 424.38
1429 1 -55.9504 4.28998 421.358 -55.9504 4.28998 421.358
1133 1 -60.5949 2.82892 420.351 -60.5949 2.82892 420.351
1175 1 -35.4766 2.83047 420.127 -35.4766 2.83047 420.127
2616 1 -36.9321 1.01876 443.655 -36.9321 1.01876 443.655
2901 1 -38.6154 0.990518 445.561 -38.6154 0.990518 445.561
2907 1 -35.4539 3.94994 445.113 -35.4539 3.94994 445.113
3194 1 -36.4997 0.197494 449.429 -36.4997 0.197494 449.429
2587 1 -53.1766 0.325762 440.127 -53.1766 0.325762 440.127
2597 1 -47.6926 4.01648 440.181 -47.6926 4.01648 440.181
2584 1 -54.8601 0.297425 442.033 -54.8601 0.297425 442.033
2581 1 -56.5433 0.269155 443.938 -56.5433 0.269155 443.938
2868 1 -58.2263 0.241 445.844 -58.2263 0.241 445.844
2865 1 -59.9092 0.213011 447.75 -59.9092 0.213011 447.75
2601 1 -45.3718 0.32049 440.685 -45.3718 0.32049 440.685
2598 1 -47.0553 0.292235 442.591 -47.0553 0.292235 442.591
2885 1 -48.7385 0.264008 444.497 -48.7385 0.264008 444.497
2882 1 -50.4213 0.235856 446.403 -50.4213 0.235856 446.403
2879 1 -52.1037 0.207832 448.309 -52.1037 0.207832 448.309
2612 1 -39.2522 0.287199 443.151 -39.2522 0.287199 443.151
2898 1 -40.9355 0.25897 445.057 -40.9355 0.25897 445.057
2895 1 -42.6184 0.230778 446.963 -42.6184 0.230778 446.963
3180 1 -44.3007 0.202662 448.869 -44.3007 0.202662 448.869
2576 1 -59.5033 3.26234 441.026 -59.5033 3.26234 441.026
2574 1 -61.1868 3.23412 442.932 -61.1868 3.23412 442.932
2589 1 -51.6972 3.25673 441.583 -51.6972 3.25673 441.583
2586 1 -53.3804 3.22845 443.489 -53.3804 3.22845 443.489
2874 1 -55.0634 3.20024 445.395 -55.0634 3.20024 445.395
2871 1 -56.7462 3.17217 447.301 -56.7462 3.17217 447.301
3155 1 -58.4287 3.14426 449.207 -58.4287 3.14426 449.207
2607 1 -42.2092 3.27982 440.236 -42.2092 3.27982 440.236
2604 1 -43.893 3.25159 442.142 -43.893 3.25159 442.142
2600 1 -45.5763 3.22335 444.048 -45.5763 3.22335 444.048
2887 1 -47.2592 3.19516 445.954 -47.2592 3.19516 445.954
2884 1 -48.9417 3.16707 447.86 -48.9417 3.16707 447.86
3168 1 -50.6239 3.13912 449.766 -50.6239 3.13912 449.766
2900 1 -39.4569 3.19013 446.514 -39.4569 3.19013 446.514
2897 1 -41.1395 3.16197 448.42 -41.1395 3.16197 448.42
2582 1 -56.3398 1.79398 440.576 -56.3398 1.79398 440.576
2579 1 -58.0233 1.76567 442.482 -58.0233 1.76567 442.482
2866 1 -59.7066 1.73747 444.388 -59.7066 1.73747 444.388
2578 1 -58.6614 1.06278 440.073 -58.6614 1.06278 440.073
2595 1 -48.5344 1.78861 441.134 -48.5344 1.78861 441.134
2592 1 -50.2178 1.76034 443.04 -50.2178 1.76034 443.04
2880 1 -51.9008 1.73212 444.946 -51.9008 1.73212 444.946
2877 1 -53.5835 1.704 446.852 -53.5835 1.704 446.852
2873 1 -55.266 1.67604 448.758 -55.266 1.67604 448.758
2609 1 -40.7307 1.78349 441.694 -40.7307 1.78349 441.694
2606 1 -42.4142 1.75527 443.599 -42.4142 1.75527 443.599
2892 1 -44.0973 1.72705 445.505 -44.0973 1.72705 445.505
2890 1 -45.78 1.6989 447.411 -45.78 1.6989 447.411
3174 1 -47.4622 1.67084 449.317 -47.4622 1.67084 449.317
2618 1 -36.0902 3.24661 442.703 -36.0902 3.24661 442.703
2585 1 -54.0184 2.52531 441.08 -54.0184 2.52531 441.08
2583 1 -55.7017 2.497 442.986 -55.7017 2.497 442.986
2870 1 -57.3848 2.46879 444.891 -57.3848 2.46879 444.891
2867 1 -59.0678 2.44071 446.797 -59.0678 2.44071 446.797
2863 1 -60.7507 2.41282 448.703 -60.7507 2.41282 448.703
2599 1 -46.2136 2.52009 441.638 -46.2136 2.52009 441.638
2596 1 -47.897 2.49184 443.544 -47.897 2.49184 443.544
2883 1 -49.5799 2.46365 445.45 -49.5799 2.46365 445.45
2881 1 -51.2625 2.43555 447.356 -51.2625 2.43555 447.356
3164 1 -52.9449 2.40761 449.262 -52.9449 2.40761 449.262
2610 1 -40.094 2.48681 444.104 -40.094 2.48681 444.104
2896 1 -41.777 2.45859 446.01 -41.777 2.45859 446.01
2893 1 -43.4596 2.43044 447.916 -43.4596 2.43044 447.916
3178 1 -45.1418 2.40237 449.822 -45.1418 2.40237 449.822
2575 1 -60.3451 1.03449 441.979 -60.3451 1.03449 441.979
2591 1 -50.8554 1.05716 440.63 -50.8554 1.05716 440.63
2588 1 -52.5388 1.02886 442.536 -52.5388 1.02886 442.536
2876 1 -54.2219 1.00061 444.442 -54.2219 1.00061 444.442
2872 1 -55.9048 0.97246 446.348 -55.9048 0.97246 446.348
2869 1 -57.5875 0.944462 448.254 -57.5875 0.944462 448.254
2605 1 -43.0512 1.05198 441.189 -43.0512 1.05198 441.189
2602 1 -44.7347 1.02374 443.095 -44.7347 1.02374 443.095
2889 1 -46.4178 0.995523 445.001 -46.4178 0.995523 445.001
2886 1 -48.1005 0.967374 446.907 -48.1005 0.967374 446.907
3170 1 -49.7829 0.939342 448.813 -49.7829 0.939342 448.813
2899 1 -40.2982 0.962313 447.467 -40.2982 0.962313 447.467
3184 1 -41.9806 0.934197 449.373 -41.9806 0.934197 449.373
2580 1 -57.1816 3.99354 441.529 -57.1816 3.99354 441.529
2577 1 -58.8649 3.96528 443.435 -58.8649 3.96528 443.435
2864 1 -60.5482 3.93716 445.341 -60.5482 3.93716 445.341
2862 1 -61.3898 1.70944 446.294 -61.3898 1.70944 446.294
2594 1 -49.3762 3.9882 442.087 -49.3762 3.9882 442.087
2590 1 -51.0594 3.95995 443.993 -51.0594 3.95995 443.993
2878 1 -52.7422 3.93177 445.899 -52.7422 3.93177 445.899
2875 1 -54.4248 3.90373 447.805 -54.4248 3.90373 447.805
3159 1 -56.1072 3.87586 449.711 -56.1072 3.87586 449.711
2611 1 -39.8887 4.01132 440.741 -39.8887 4.01132 440.741
2608 1 -41.5725 3.98311 442.646 -41.5725 3.98311 442.646
2894 1 -43.2558 3.95488 444.552 -43.2558 3.95488 444.552
2891 1 -44.9387 3.92669 446.458 -44.9387 3.92669 446.458
2888 1 -46.6211 3.89858 448.364 -46.6211 3.89858 448.364
2904 1 -37.137 3.92167 447.019 -37.137 3.92167 447.019
2621 1 -34.4059 3.27477 440.798 -34.4059 3.27477 440.798
2617 1 -36.7262 2.54321 440.293 -36.7262 2.54321 440.293
2614 1 -38.4104 2.51504 442.198 -38.4104 2.51504 442.198
2908 1 -34.8172 0.225765 447.523 -34.8172 0.225765 447.523
2619 1 -35.2482 1.04698 441.75 -35.2482 1.04698 441.75
2906 1 -35.6585 2.42534 448.476 -35.6585 2.42534 448.476
2905 1 -36.2955 1.72207 446.066 -36.2955 1.72207 446.066
2620 1 -34.6121 1.75036 444.16 -34.6121 1.75036 444.16
3190 1 -38.8195 3.89347 448.925 -38.8195 3.89347 448.925
2902 1 -37.9783 1.69383 447.972 -37.9783 1.69383 447.972
2903 1 -37.7738 3.21837 444.608 -37.7738 3.21837 444.608
2615 1 -37.5684 0.315409 441.245 -37.5684 0.315409 441.245
2909 1 -33.9757 2.45366 446.57 -33.9757 2.45366 446.57
14 1 -53.0687 0.195725 399.409 -53.0687 4.62318 399.409
7 1 -57.6067 3.1387 398.513 -57.6067 3.1387 398.513
25 1 -45.2238 0.193674 399.885 -45.2238 4.62113 399.885
38 1 -37.3745 0.13525 400.394 -37.3745 4.5627 400.394
23 1 -46.9074 0.148173 401.779 -46.9074 4.57563 401.779
287 1 -50.2727 0.0855282 405.563 -50.2727 4.51298 405.563
878 1 -41.3923 4.39031 414.299 -41.3923 4.39031 414.299
579 1 -47.5188 4.42747 411.835 -47.5188 4.42747 411.835
585 1 -44.144 0.0535901 408.027 -44.144 4.48104 408.027
290 1 -48.591 0.114969 403.663 -48.591 4.54242 403.663
11 1 -54.7142 0.136195 401.239 -54.7142 4.56365 401.239
595 1 -38.0168 0.0160289 410.492 -38.0168 4.44348 410.492
1134 1 -60.3887 4.354 416.99 -60.3887 4.354 416.99
283 1 -51.9592 0.0601786 407.466 -51.9592 4.48763 407.466
582 1 -45.8314 0.0267493 409.931 -45.8314 4.4542 409.931
276 1 -56.4097 0.127432 403.109 -56.4097 4.55488 403.109
569 1 -53.6457 0.0353026 409.369 -53.6457 4.46276 409.369
847 1 -58.7028 4.38148 415.085 -58.7028 4.38148 415.085
556 1 -61.4561 0.0465568 408.813 -61.4561 4.47401 408.813
272 1 -58.0911 0.104788 405 -58.0911 4.53224 405
3 1 -59.4252 3.1425 400.21 -59.4252 3.1425 400.21
35 1 -39.0734 0.129874 402.305 -39.0734 4.55733 402.305
598 1 -36.3285 0.0423022 408.59 -36.3285 4.46975 408.59