ITEM: TIMESTEP
0
ITEM: NUMBER OF ATOMS
4630
ITEM: BOX BOUNDS xy xz yz pp pp pp
-6.2240988501799997e+01 1.0526002035000000e+02 0.0000000000000000e+00
0.0000000000000000e+00 4.4274527100805940e+00 0.0000000000000000e+00
3.8000000000000000e+02 5.0000000000000000e+02 0.0000000000000000e+00
ITEM: ATOMS id type x y z xu yu zu
27 1 -44.8197 2.32724 399.205 -44.8197 2.32724 399.205
36 1 -39.2805 1.58383 399.26 -39.2805 1.58383 399.26
31 1 -42.4399 3.0148 399.644 -42.4399 3.0148 399.644
22 1 -47.9762 3.76611 399.618 -47.9762 3.76611 399.618
20 1 -48.8257 1.54646 400.476 -48.8257 1.54646 400.476
40 1 -36.9033 2.27325 399.703 -36.9033 2.27325 399.703
34 1 -40.1085 3.78291 400.108 -40.1085 3.78291 400.108
17 1 -51.1617 0.792215 400.02 -51.1617 0.792215 400.02
9 1 -56.6589 1.47746 399.936 -56.6589 1.47746 399.936
43 1 -34.5737 3.04218 400.169 -34.5737 3.04218 400.169
12 1 -54.3586 2.3009 400.429 -54.3586 2.3009 400.429
5 1 -59.0304 0.822182 399.477 -59.0304 0.822182 399.477
29 1 -43.2898 0.786729 400.507 -43.2898 0.786729 400.507
853 1 -56.0642 2.85603 414.735 -56.0642 2.85603 414.735
873 1 -45.0082 1.37867 414.851 -45.0082 1.37867 414.851
865 1 -49.0493 0.625085 416.243 -49.0493 0.625085 416.243
1174 1 -36.5045 2.08036 417.812 -36.5045 2.08036 417.812
883 1 -39.4791 0.638846 414.91 -39.4791 0.638846 414.91
863 1 -50.5373 2.11817 414.792 -50.5373 2.11817 414.792
315 1 -34.7907 1.50664 403.488 -34.7907 1.50664 403.488
307 1 -39.6859 2.95872 405.824 -39.6859 2.95872 405.824
1150 1 -50.7508 0.602505 418.138 -50.7508 0.602505 418.138
855 1 -54.5767 1.36321 416.185 -54.5767 1.36321 416.185
310 1 -37.9825 2.98056 403.934 -37.9825 2.98056 403.934
871 1 -45.8595 3.58147 415.798 -45.8595 3.58147 415.798
16 1 -52.0061 2.9917 400.887 -52.0061 2.9917 400.887
309 1 -38.1969 1.46546 407.273 -38.1969 1.46546 407.273
1156 1 -47.5615 3.55937 417.693 -47.5615 3.55937 417.693
867 1 -48.1984 2.84993 415.295 -48.1984 2.84993 415.295
1159 1 -45.2229 4.29104 418.196 -45.2229 4.29104 418.196
1168 1 -39.6945 3.55156 418.255 -39.6945 3.55156 418.255
1170 1 -38.8431 1.34872 417.308 -38.8431 1.34872 417.308
594 1 -39.0485 3.66851 408.22 -39.0485 3.66851 408.22
37 1 -38.617 2.26777 401.556 -38.617 2.26777 401.556
851 1 -56.9146 0.630906 415.683 -56.9146 0.630906 415.683
857 1 -53.7262 3.58838 415.237 -53.7262 3.58838 415.237
592 1 -39.8999 1.44398 409.167 -39.8999 1.44398 409.167
849 1 -57.7651 2.83324 416.631 -57.7651 2.83324 416.631
877 1 -42.6693 2.11015 415.354 -42.6693 2.11015 415.354
1143 1 -55.4271 3.5655 417.133 -55.4271 3.5655 417.133
1140 1 -57.1279 3.54261 419.029 -57.1279 3.54261 419.029
845 1 -60.1031 2.10118 416.129 -60.1031 2.10118 416.129
875 1 -43.5206 4.31298 416.301 -43.5206 4.31298 416.301
886 1 -37.7762 0.660543 413.016 -37.7762 0.660543 413.016
891 1 -34.5857 3.61647 412.573 -34.5857 3.61647 412.573
39 1 -37.1352 0.772656 402.978 -37.1352 0.772656 402.978
1177 1 -35.0174 0.587477 419.263 -35.0174 0.587477 419.263
1167 1 -40.5458 1.32692 419.202 -40.5458 1.32692 419.202
8 1 -57.5282 3.7369 400.905 -57.5282 3.7369 400.905
869 1 -46.7106 1.35675 416.746 -46.7106 1.35675 416.746
1136 1 -59.4659 2.81043 418.527 -59.4659 2.81043 418.527
1162 1 -43.7354 2.79795 419.647 -43.7354 2.79795 419.647
15 1 -52.8643 0.78402 401.878 -52.8643 0.78402 401.878
280 1 -54.5683 0.762867 403.758 -54.5683 0.762867 403.758
277 1 -56.2785 0.752371 405.644 -56.2785 0.752371 405.644
273 1 -57.9779 0.729702 407.538 -57.9779 0.729702 407.538
560 1 -59.677 0.705887 409.435 -59.677 0.705887 409.435
557 1 -61.3775 0.68294 411.332 -61.3775 0.68294 411.332
26 1 -44.9982 0.786191 402.411 -44.9982 0.786191 402.411
294 1 -46.7043 0.767267 404.316 -46.7043 0.767267 404.316
291 1 -48.4068 0.742203 406.21 -48.4068 0.742203 406.21
576 1 -50.1089 0.719027 408.103 -50.1089 0.719027 408.103
573 1 -51.8118 0.698061 409.996 -51.8118 0.698061 409.996
570 1 -53.5132 0.676323 411.891 -53.5132 0.676323 411.891
854 1 -55.2139 0.653682 413.787 -55.2139 0.653682 413.787
305 1 -40.5365 0.73449 406.77 -40.5365 0.73449 406.77
589 1 -42.2392 0.712661 408.665 -42.2392 0.712661 408.665
586 1 -43.9419 0.690752 410.559 -43.9419 0.690752 410.559
872 1 -45.6447 0.668967 412.454 -45.6447 0.668967 412.454
599 1 -36.0731 0.682141 411.122 -36.0731 0.682141 411.122
1132 1 -61.8039 2.0784 418.025 -61.8039 2.0784 418.025
4 1 -59.2662 3.75224 402.727 -59.2662 3.75224 402.727
268 1 -60.9521 3.71636 404.635 -60.9521 3.71636 404.635
1152 1 -49.9001 2.82756 417.19 -49.9001 2.82756 417.19
19 1 -49.6877 3.73431 401.421 -49.6877 3.73431 401.421
286 1 -51.3813 3.71412 403.297 -51.3813 3.71412 403.297
282 1 -53.0813 3.69793 405.199 -53.0813 3.69793 405.199
279 1 -54.7878 3.68299 407.092 -54.7878 3.68299 407.092
565 1 -56.489 3.66253 408.988 -56.489 3.66253 408.988
563 1 -58.1891 3.63975 410.885 -58.1891 3.63975 410.885
846 1 -59.8898 3.61705 412.782 -59.8898 3.61705 412.782
32 1 -41.8098 3.74003 401.991 -41.8098 3.74003 401.991
300 1 -43.5145 3.72165 403.876 -43.5145 3.72165 403.876
297 1 -45.2169 3.69969 405.767 -45.2169 3.69969 405.767
293 1 -46.9186 3.6773 407.66 -46.9186 3.6773 407.66
578 1 -48.6209 3.65489 409.554 -48.6209 3.65489 409.554
575 1 -50.3236 3.63321 411.448 -50.3236 3.63321 411.448
860 1 -52.0253 3.6111 413.342 -52.0253 3.6111 413.342
591 1 -40.7514 3.64678 410.115 -40.7514 3.64678 410.115
588 1 -42.4541 3.625 412.009 -42.4541 3.625 412.009
874 1 -44.1569 3.60326 413.904 -44.1569 3.60326 413.904
10 1 -56.0544 2.24461 402.314 -56.0544 2.24461 402.314
274 1 -57.7722 2.25033 404.187 -57.7722 2.25033 404.187
271 1 -59.4662 2.22389 406.087 -59.4662 2.22389 406.087
558 1 -61.1646 2.19908 407.985 -61.1646 2.19908 407.985
24 1 -46.5078 2.27944 401.003 -46.5078 2.27944 401.003
21 1 -48.201 2.25808 402.867 -48.201 2.25808 402.867
288 1 -49.8949 2.23288 404.761 -49.8949 2.23288 404.761
285 1 -51.5961 2.20955 406.654 -51.5961 2.20955 406.654
571 1 -53.2999 2.19026 408.546 -53.2999 2.19026 408.546
568 1 -55.0012 2.16915 410.44 -55.0012 2.16915 410.44
852 1 -56.7015 2.14656 412.336 -56.7015 2.14656 412.336
848 1 -58.4022 2.12388 414.232 -58.4022 2.12388 414.232
306 1 -40.3236 2.24773 403.427 -40.3236 2.24773 403.427
302 1 -42.0256 2.22716 405.318 -42.0256 2.22716 405.318
299 1 -43.7276 2.20587 407.214 -43.7276 2.20587 407.214
583 1 -45.43 2.18399 409.109 -45.43 2.18399 409.109
581 1 -47.1327 2.16205 411.004 -47.1327 2.16205 411.004
866 1 -48.8354 2.14032 412.898 -48.8354 2.14032 412.898
880 1 -40.9665 2.1319 413.46 -40.9665 2.1319 413.46
312 1 -36.494 1.48646 405.378 -36.494 1.48646 405.378
2 1 -60.7688 0.833364 401.292 -60.7688 0.833364 401.292
13 1 -53.7087 2.98366 402.796 -53.7087 2.98366 402.796
278 1 -55.4226 2.97149 404.694 -55.4226 2.97149 404.694
275 1 -57.1282 2.95538 406.587 -57.1282 2.95538 406.587
562 1 -58.8269 2.93133 408.486 -58.8269 2.93133 408.486
559 1 -60.5271 2.90806 410.384 -60.5271 2.90806 410.384
1166 1 -41.397 3.52969 420.15 -41.397 3.52969 420.15
889 1 -35.4373 1.39201 413.52 -35.4373 1.39201 413.52
28 1 -44.1509 3.00986 401.498 -44.1509 3.00986 401.498
296 1 -45.8563 2.99022 403.371 -45.8563 2.99022 403.371
292 1 -47.5566 2.96852 405.263 -47.5566 2.96852 405.263
289 1 -49.2575 2.94434 407.158 -49.2575 2.94434 407.158
574 1 -50.9604 2.92238 409.051 -50.9604 2.92238 409.051
572 1 -52.6627 2.90115 410.944 -52.6627 2.90115 410.944
856 1 -54.3636 2.8788 412.839 -54.3636 2.8788 412.839
303 1 -41.3883 2.93708 407.717 -41.3883 2.93708 407.717
587 1 -43.0907 2.91536 409.612 -43.0907 2.91536 409.612
584 1 -44.7933 2.89355 411.506 -44.7933 2.89355 411.506
870 1 -46.4961 2.87183 413.401 -46.4961 2.87183 413.401
6 1 -58.4066 1.54248 401.787 -58.4066 1.54248 401.787
270 1 -60.1063 1.51869 403.68 -60.1063 1.51869 403.68
267 1 -61.8007 1.48974 405.585 -61.8007 1.48974 405.585
890 1 -34.8015 2.10196 415.918 -34.8015 2.10196 415.918
18 1 -50.5269 1.51213 402.367 -50.5269 1.51213 402.367
284 1 -52.2285 1.49431 404.258 -52.2285 1.49431 404.258
281 1 -53.9354 1.47757 406.149 -53.9354 1.47757 406.149
567 1 -55.6392 1.4599 408.041 -55.6392 1.4599 408.041
564 1 -57.3391 1.43747 409.937 -57.3391 1.43747 409.937
561 1 -59.0394 1.41468 411.834 -59.0394 1.41468 411.834
844 1 -60.7403 1.392 413.73 -60.7403 1.392 413.73
33 1 -40.9748 1.53662 401.054 -40.9748 1.53662 401.054
30 1 -42.6684 1.51371 402.918 -42.6684 1.51371 402.918
298 1 -44.3659 1.49646 404.816 -44.3659 1.49646 404.816
295 1 -46.0674 1.47492 406.713 -46.0674 1.47492 406.713
580 1 -47.7696 1.45215 408.607 -47.7696 1.45215 408.607
577 1 -49.4724 1.43023 410.501 -49.4724 1.43023 410.501
862 1 -51.1746 1.4085 412.394 -51.1746 1.4085 412.394
590 1 -41.6027 1.4222 411.062 -41.6027 1.4222 411.062
876 1 -43.3055 1.40041 412.957 -43.3055 1.40041 412.957
1163 1 -42.8843 0.595241 418.699 -42.8843 0.595241 418.699
1153 1 -49.2631 3.53688 419.589 -49.2631 3.53688 419.589
311 1 -37.3448 3.69023 406.327 -37.3448 3.69023 406.327
42 1 -35.4399 0.795652 401.115 -35.4399 0.795652 401.115
1135 1 -60.3163 0.585259 419.475 -60.3163 0.585259 419.475
1171 1 -38.2073 2.05864 419.706 -38.2073 2.05864 419.706
1139 1 -57.9783 1.31741 419.977 -57.9783 1.31741 419.977
601 1 -35.2215 2.90657 410.175 -35.2215 2.90657 410.175
313 1 -35.639 3.71215 404.432 -35.639 3.71215 404.432
858 1 -52.8758 1.38604 414.289 -52.8758 1.38604 414.289
868 1 -47.3473 0.647211 414.348 -47.3473 0.647211 414.348
1147 1 -53.089 4.2978 417.636 -53.089 4.2978 417.636
843 1 -61.5907 3.59438 414.678 -61.5907 3.59438 414.678
593 1 -39.2637 2.15364 411.565 -39.2637 2.15364 411.565
308 1 -38.8338 0.755506 404.874 -38.8338 0.755506 404.874
861 1 -51.3879 4.32061 415.74 -51.3879 4.32061 415.74
1158 1 -46.0739 2.06623 419.144 -46.0739 2.06623 419.144
884 1 -38.6276 2.86343 413.963 -38.6276 2.86343 413.963
881 1 -40.3304 2.84171 415.857 -40.3304 2.84171 415.857
885 1 -37.9917 3.5733 416.361 -37.9917 3.5733 416.361
859 1 -52.2385 2.0955 416.688 -52.2385 2.0955 416.688
596 1 -37.5608 2.17526 409.671 -37.5608 2.17526 409.671
879 1 -41.1818 0.617099 416.805 -41.1818 0.617099 416.805
1172 1 -37.3559 4.28324 418.759 -37.3559 4.28324 418.759
1154 1 -48.4124 1.33444 418.641 -48.4124 1.33444 418.641
887 1 -37.1403 1.37041 415.414 -37.1403 1.37041 415.414
597 1 -36.9247 2.88507 412.069 -36.9247 2.88507 412.069
1161 1 -44.3718 2.08832 417.249 -44.3718 2.08832 417.249
1138 1 -58.6155 0.608115 417.579 -58.6155 0.608115 417.579
1149 1 -51.6014 2.80483 419.086 -51.6014 2.80483 419.086
41 1 -36.2762 2.99867 402.051 -36.2762 2.99867 402.051
888 1 -36.2888 3.59495 414.467 -36.2888 3.59495 414.467
1165 1 -42.0331 2.81992 417.752 -42.0331 2.81992 417.752
1141 1 -56.2775 1.34033 418.081 -56.2775 1.34033 418.081
1145 1 -53.9395 2.07262 418.584 -53.9395 2.07262 418.584
600 1 -35.8578 2.19663 407.777 -35.8578 2.19663 407.777
1148 1 -52.4519 0.579671 420.034 -52.4519 0.579671 420.034
882 1 -40.1151 4.3565 412.512 -40.1151 4.3565 412.512
1157 1 -46.9248 4.26878 420.091 -46.9248 4.26878 420.091
1144 1 -54.7899 4.27488 419.531 -54.7899 4.27488 419.531
602 1 -34.3697 0.703553 409.228 -34.3697 0.703553 409.228
1131 1 -62.0169 0.562306 421.372 -62.0169 0.562306 421.372
1755 1 -34.8132 2.69591 428.351 -34.8132 2.69591 428.351
1460 1 -39.2738 2.74661 423.999 -39.2738 2.74661 423.999
2308 1 -48.8419 3.31971 437.772 -48.8419 3.31971 437.772
2316 1 -43.9549 1.87315 435.43 -43.9549 1.87315 435.43
2312 1 -46.5048 4.05231 438.274 -46.5048 4.05231 438.274
1464 1 -36.9357 3.47857 424.502 -36.9357 3.47857 424.502
1461 1 -38.4227 0.543901 423.051 -38.4227 0.543901 423.051
2039 1 -37.5802 3.36105 434.54 -37.5802 3.36105 434.54
2613 1 -39.4941 1.82274 439.783 -39.4941 1.82274 439.783
1467 1 -34.5977 4.21053 425.006 -34.5977 4.21053 425.006
2603 1 -45.0176 2.55966 439.725 -45.0176 2.55966 439.725
1443 1 -48.6262 4.2462 421.987 -48.6262 4.2462 421.987
1748 1 -38.6378 3.45647 426.397 -38.6378 3.45647 426.397
2023 1 -46.2921 1.14062 434.927 -46.2921 1.14062 434.927
2310 1 -47.3545 1.82704 439.222 -47.3545 1.82704 439.222
1151 1 -50.1137 1.3118 420.536 -50.1137 1.3118 420.536
2303 1 -52.0288 0.361794 438.217 -52.0288 0.361794 438.217
2299 1 -54.3662 4.05664 437.715 -54.3662 4.05664 437.715
2033 1 -40.7676 0.40342 434.985 -40.7676 0.40342 434.985
1433 1 -54.1528 0.556717 421.93 -54.1528 0.556717 421.93
1430 1 -55.8535 0.533682 423.826 -55.8535 0.533682 423.826
1426 1 -57.5541 0.51057 425.722 -57.5541 0.51057 425.722
1713 1 -59.2545 0.487392 427.619 -59.2545 0.487392 427.619
1710 1 -60.9547 0.464165 429.515 -60.9547 0.464165 429.515
2330 1 -35.4573 2.57832 438.39 -35.4573 2.57832 438.39
1160 1 -44.5864 0.573142 420.594 -44.5864 0.573142 420.594
1447 1 -46.2881 0.550745 422.489 -46.2881 0.550745 422.489
1444 1 -47.9894 0.52809 424.385 -47.9894 0.52809 424.385
1730 1 -49.6904 0.505241 426.281 -49.6904 0.505241 426.281
1727 1 -51.3911 0.482247 428.177 -51.3911 0.482247 428.177
1724 1 -53.0915 0.459141 430.073 -53.0915 0.459141 430.073
2008 1 -54.7917 0.435955 431.969 -54.7917 0.435955 431.969
2006 1 -56.4916 0.412715 433.866 -56.4916 0.412715 433.866
1458 1 -40.1248 0.521799 424.946 -40.1248 0.521799 424.946
1743 1 -41.8265 0.499448 426.841 -41.8265 0.499448 426.841
1740 1 -43.5277 0.476864 428.737 -43.5277 0.476864 428.737
2026 1 -45.2286 0.454083 430.632 -45.2286 0.454083 430.632
2022 1 -46.9291 0.431147 432.528 -46.9291 0.431147 432.528
2019 1 -48.6293 0.408096 434.425 -48.6293 0.408096 434.425
2309 1 -47.992 1.11754 436.823 -47.992 1.11754 436.823
1137 1 -58.8287 3.51966 420.925 -58.8287 3.51966 420.925
1421 1 -60.5293 3.49664 422.822 -60.5293 3.49664 422.822
1439 1 -50.9643 3.51412 421.484 -50.9643 3.51412 421.484
1435 1 -52.6653 3.49119 423.38 -52.6653 3.49119 423.38
1432 1 -54.366 3.46816 425.276 -54.366 3.46816 425.276
1719 1 -56.0665 3.44503 427.172 -56.0665 3.44503 427.172
1716 1 -57.7669 3.42184 429.069 -57.7669 3.42184 429.069
2001 1 -59.467 3.3986 430.965 -59.467 3.3986 430.965
1998 1 -61.167 3.37533 432.862 -61.167 3.37533 432.862
2323 1 -39.2808 3.33826 436.436 -39.2808 3.33826 436.436
1453 1 -43.0991 3.50759 422.045 -43.0991 3.50759 422.045
1450 1 -44.8008 3.48521 423.94 -44.8008 3.48521 423.94
1446 1 -46.5021 3.46259 425.835 -46.5021 3.46259 425.835
1732 1 -48.203 3.43977 427.731 -48.203 3.43977 427.731
1729 1 -49.9037 3.4168 429.627 -49.9037 3.4168 429.627
2014 1 -51.604 3.39371 431.523 -51.604 3.39371 431.523
2011 1 -53.3041 3.37054 433.42 -53.3041 3.37054 433.42
1745 1 -40.3395 3.43413 428.292 -40.3395 3.43413 428.292
1742 1 -42.0407 3.41155 430.187 -42.0407 3.41155 430.187
2028 1 -43.7415 3.38878 432.083 -43.7415 3.38878 432.083
2025 1 -45.442 3.36585 433.979 -45.442 3.36585 433.979
1427 1 -57.3411 2.02666 422.376 -57.3411 2.02666 422.376
1424 1 -59.0417 2.00359 424.272 -59.0417 2.00359 424.272
1711 1 -60.7421 1.98044 426.168 -60.7421 1.98044 426.168
2322 1 -40.1309 1.11308 437.384 -40.1309 1.11308 437.384
1750 1 -37.151 1.96376 427.848 -37.151 1.96376 427.848
1155 1 -47.7755 2.04379 421.039 -47.7755 2.04379 421.039
1441 1 -49.4768 2.02109 422.935 -49.4768 2.02109 422.935
1438 1 -51.1778 1.99821 424.83 -51.1778 1.99821 424.83
1725 1 -52.8785 1.97519 426.726 -52.8785 1.97519 426.726
1722 1 -54.579 1.95207 428.623 -54.579 1.95207 428.623
1718 1 -56.2792 1.92887 430.519 -56.2792 1.92887 430.519
2003 1 -57.9793 1.90563 432.416 -57.9793 1.90563 432.416
2000 1 -59.6792 1.88236 434.312 -59.6792 1.88236 434.312
1459 1 -39.9098 2.03676 421.6 -39.9098 2.03676 421.6
1455 1 -41.6119 2.01465 423.495 -41.6119 2.01465 423.495
1452 1 -43.3136 1.99229 425.39 -43.3136 1.99229 425.39
1737 1 -45.0148 1.96969 427.286 -45.0148 1.96969 427.286
1735 1 -46.7158 1.9469 429.182 -46.7158 1.9469 429.182
2020 1 -48.4164 1.92395 431.078 -48.4164 1.92395 431.078
2017 1 -50.1166 1.90088 432.974 -50.1166 1.90088 432.974
2034 1 -40.5538 1.91884 431.638 -40.5538 1.91884 431.638
2031 1 -42.2545 1.89607 433.534 -42.2545 1.89607 433.534
2029 1 -43.1048 4.09836 434.482 -43.1048 4.09836 434.482
1146 1 -53.3024 2.78193 420.982 -53.3024 2.78193 420.982
1431 1 -55.0032 2.75894 422.878 -55.0032 2.75894 422.878
1428 1 -56.7038 2.73586 424.774 -56.7038 2.73586 424.774
1715 1 -58.4043 2.71272 426.67 -58.4043 2.71272 426.67
1712 1 -60.1046 2.68951 428.567 -60.1046 2.68951 428.567
1708 1 -61.8048 2.66627 430.463 -61.8048 2.66627 430.463
1747 1 -38.8526 1.94142 429.743 -38.8526 1.94142 429.743
1449 1 -45.4373 2.77571 421.542 -45.4373 2.77571 421.542
1445 1 -47.1388 2.75317 423.437 -47.1388 2.75317 423.437
1442 1 -48.8399 2.73041 425.333 -48.8399 2.73041 425.333
1728 1 -50.5407 2.70749 427.229 -50.5407 2.70749 427.229
1726 1 -52.2413 2.68443 429.125 -52.2413 2.68443 429.125
2010 1 -53.9416 2.66128 431.021 -53.9416 2.66128 431.021
2007 1 -55.6417 2.63807 432.918 -55.6417 2.63807 432.918
1456 1 -40.9757 2.72438 425.894 -40.9757 2.72438 425.894
1741 1 -42.6771 2.70191 427.789 -42.6771 2.70191 427.789
1738 1 -44.3782 2.67922 429.684 -44.3782 2.67922 429.684
2024 1 -46.0789 2.65636 431.58 -46.0789 2.65636 431.58
2021 1 -47.7793 2.63336 433.476 -47.7793 2.63336 433.476
2035 1 -39.9173 2.62855 434.037 -39.9173 2.62855 434.037
1754 1 -35.4489 1.98585 425.953 -35.4489 1.98585 425.953
1423 1 -59.679 1.29444 421.874 -59.679 1.29444 421.874
1420 1 -61.3796 1.27137 423.77 -61.3796 1.27137 423.77
2044 1 -34.3926 1.89111 434.096 -34.3926 1.89111 434.096
1437 1 -51.8148 1.28894 422.432 -51.8148 1.28894 422.432
1434 1 -53.5157 1.26596 424.328 -53.5157 1.26596 424.328
1721 1 -55.2163 1.24288 426.224 -55.2163 1.24288 426.224
1717 1 -56.9167 1.21972 428.121 -56.9167 1.21972 428.121
1714 1 -58.617 1.1965 430.017 -58.617 1.1965 430.017
1999 1 -60.317 1.17324 431.914 -60.317 1.17324 431.914
1997 1 -62.0169 1.14998 433.81 -62.0169 1.14998 433.81
1164 1 -42.2481 1.30494 421.097 -42.2481 1.30494 421.097
1451 1 -43.95 1.28271 422.992 -43.95 1.28271 422.992
1448 1 -45.6515 1.2602 424.888 -45.6515 1.2602 424.888
1734 1 -47.3526 1.23747 426.783 -47.3526 1.23747 426.783
1731 1 -49.0534 1.21457 428.679 -49.0534 1.21457 428.679
2016 1 -50.7539 1.19154 430.575 -50.7539 1.19154 430.575
2012 1 -52.4541 1.16841 432.472 -52.4541 1.16841 432.472
2009 1 -54.1541 1.1452 434.368 -54.1541 1.1452 434.368
1746 1 -39.4887 1.2316 427.344 -39.4887 1.2316 427.344
1744 1 -41.1901 1.20914 429.24 -41.1901 1.20914 429.24
2030 1 -42.8912 1.18646 431.135 -42.8912 1.18646 431.135
2027 1 -44.5918 1.16361 433.031 -44.5918 1.16361 433.031
2325 1 -38.4306 1.13595 435.488 -38.4306 1.13595 435.488
1749 1 -38.0018 4.16634 428.795 -38.0018 4.16634 428.795
1425 1 -58.1914 4.22886 423.324 -58.1914 4.22886 423.324
1736 1 -45.8653 4.17204 428.234 -45.8653 4.17204 428.234
1142 1 -55.6404 2.04967 420.479 -55.6404 2.04967 420.479
1720 1 -55.4291 4.15421 429.571 -55.4291 4.15421 429.571
2005 1 -57.1293 4.13098 431.467 -57.1293 4.13098 431.467
2002 1 -58.8293 4.10772 433.364 -58.8293 4.10772 433.364
1169 1 -39.0586 4.26145 420.653 -39.0586 4.26145 420.653
1723 1 -53.7288 4.17737 427.675 -53.7288 4.17737 427.675
1440 1 -50.3273 4.22339 423.882 -50.3273 4.22339 423.882
1733 1 -47.5661 4.14916 430.13 -47.5661 4.14916 430.13
2018 1 -49.2665 4.12615 432.026 -49.2665 4.12615 432.026
2015 1 -50.9667 4.10304 433.922 -50.9667 4.10304 433.922
2036 1 -39.7032 4.14388 430.69 -39.7032 4.14388 430.69
2032 1 -41.4042 4.12121 432.586 -41.4042 4.12121 432.586
2326 1 -37.7941 1.84569 437.887 -37.7941 1.84569 437.887
1752 1 -36.3 4.18856 426.9 -36.3 4.18856 426.9
1457 1 -40.7609 4.23946 422.548 -40.7609 4.23946 422.548
2043 1 -35.0284 1.18112 431.697 -35.0284 1.18112 431.697
2286 1 -61.379 1.8591 436.209 -61.379 1.8591 436.209
2319 1 -41.8309 1.0901 439.28 -41.8309 1.0901 439.28
1436 1 -52.0282 4.20044 425.778 -52.0282 4.20044 425.778
1422 1 -59.8919 4.20575 425.22 -59.8919 4.20575 425.22
1173 1 -36.7202 0.565778 421.157 -36.7202 0.565778 421.157
2293 1 -57.5534 1.09872 438.161 -57.5534 1.09872 438.161
2289 1 -59.891 0.366204 437.659 -59.891 0.366204 437.659
2295 1 -56.0656 4.03342 439.612 -56.0656 4.03342 439.612
1465 1 -36.0845 1.2758 423.555 -36.0845 1.2758 423.555
2315 1 -44.1678 0.357473 438.777 -44.1678 0.357473 438.777
2331 1 -35.2431 4.09356 435.043 -35.2431 4.09356 435.043
2297 1 -55.2159 1.8313 438.663 -55.2159 1.8313 438.663
2324 1 -38.6441 4.04795 438.835 -38.6441 4.04795 438.835
2306 1 -49.6916 1.09441 438.72 -49.6916 1.09441 438.72
2285 1 -61.5905 0.342998 439.556 -61.5905 0.342998 439.556
1462 1 -37.7868 1.25382 425.449 -37.7868 1.25382 425.449
1751 1 -36.5151 2.6737 430.246 -36.5151 2.6737 430.246
2329 1 -36.0936 1.8685 435.991 -36.0936 1.8685 435.991
2042 1 -35.8791 3.38364 432.645 -35.8791 3.38364 432.645
2041 1 -36.7297 1.15864 433.592 -36.7297 1.15864 433.592
2593 1 -50.5414 3.29657 439.668 -50.5414 3.29657 439.668
2328 1 -36.3074 0.353148 439.338 -36.3074 0.353148 439.338
2301 1 -52.8786 2.56393 439.166 -52.8786 2.56393 439.166
1466 1 -35.2333 3.50043 422.608 -35.2333 3.50043 422.608
2298 1 -55.004 3.34731 435.316 -55.004 3.34731 435.316
2321 1 -40.981 3.31533 438.332 -40.981 3.31533 438.332
2313 1 -45.6549 1.85013 437.326 -45.6549 1.85013 437.326
2294 1 -56.7037 3.32407 437.213 -56.7037 3.32407 437.213
2304 1 -51.1791 2.58711 437.269 -51.1791 2.58711 437.269
2300 1 -53.5164 1.85452 436.767 -53.5164 1.85452 436.767
2290 1 -59.0412 2.59155 436.711 -59.0412 2.59155 436.711
2318 1 -42.4679 0.380497 436.881 -42.4679 0.380497 436.881
2327 1 -36.9439 4.07084 436.939 -36.9439 4.07084 436.939
2004 1 -57.3415 2.61481 434.814 -57.3415 2.61481 434.814
2013 1 -51.8166 1.87773 434.87 -51.8166 1.87773 434.87
2288 1 -60.5291 4.08446 435.26 -60.5291 4.08446 435.26
2037 1 -39.0669 0.426193 433.089 -39.0669 0.426193 433.089
1739 1 -44.1642 4.19475 426.338 -44.1642 4.19475 426.338
1753 1 -35.6642 0.471112 429.299 -35.6642 0.471112 429.299
2307 1 -49.4793 2.61027 435.373 -49.4793 2.61027 435.373
2314 1 -44.8049 4.07538 436.378 -44.8049 4.07538 436.378
2040 1 -37.3658 0.44877 431.194 -37.3658 0.44877 431.194
2320 1 -41.6178 2.6057 435.933 -41.6178 2.6057 435.933
2292 1 -58.1914 0.389454 435.762 -58.1914 0.389454 435.762
2311 1 -47.1421 3.34282 435.875 -47.1421 3.34282 435.875
2302 1 -52.6666 4.07986 435.819 -52.6666 4.07986 435.819
2296 1 -55.8538 1.12197 436.265 -55.8538 1.12197 436.265
1463 1 -37.5715 2.76859 422.104 -37.5715 2.76859 422.104
2287 1 -60.7408 2.56832 438.607 -60.7408 2.56832 438.607
2291 1 -58.4031 3.30084 439.109 -58.4031 3.30084 439.109
2317 1 -43.3179 2.58272 437.829 -43.3179 2.58272 437.829
2038 1 -38.2164 2.65124 432.141 -38.2164 2.65124 432.141
2305 1 -50.3292 0.384967 436.321 -50.3292 0.384967 436.321
2332 1 -34.607 0.375989 437.442 -34.607 0.375989 437.442
1709 1 -61.5923 4.18257 427.117 -61.5923 4.18257 427.117
1468 1 -34.3819 1.29757 421.661 -34.3819 1.29757 421.661
1454 1 -42.4628 4.21723 424.443 -42.4628 4.21723 424.443
1429 1 -56.4907 4.2519 421.428 -56.4907 4.2519 421.428
1133 1 -61.1666 2.78752 420.423 -61.1666 2.78752 420.423
1175 1 -35.8689 2.79037 420.21 -35.8689 2.79037 420.21
2616 1 -37.3703 1.03981 443.633 -37.3703 1.03981 443.633
2901 1 -39.0694 1.01672 445.529 -39.0694 1.01672 445.529
2907 1 -35.8836 3.9747 445.084 -35.8836 3.9747 445.084
3194 1 -36.9447 0.233701 449.38 -36.9447 0.233701 449.38
2587 1 -53.7282 0.338609 440.114 -53.7282 0.338609 440.114
2597 1 -48.2043 4.02921 440.171 -48.2043 4.02921 440.171
2584 1 -55.4274 0.315444 442.01 -55.4274 0.315444 442.01
2581 1 -57.1264 0.292331 443.907 -57.1264 0.292331 443.907
2868 1 -58.8253 0.269298 445.803 -58.8253 0.269298 445.803
2865 1 -60.524 0.246375 447.7 -60.524 0.246375 447.7
2601 1 -45.8673 0.334395 440.673 -45.8673 0.334395 440.673
2598 1 -47.5665 0.311304 442.57 -47.5665 0.311304 442.57
2885 1 -49.2654 0.288237 444.466 -49.2654 0.288237 444.466
2882 1 -50.9641 0.265233 446.363 -50.9641 0.265233 446.363
2879 1 -52.6626 0.242332 448.26 -52.6626 0.242332 448.26
2612 1 -39.7068 0.307117 443.13 -39.7068 0.307117 443.13
2898 1 -41.4058 0.284045 445.026 -41.4058 0.284045 445.026
2895 1 -43.1045 0.260996 446.923 -43.1045 0.260996 446.923
3180 1 -44.8029 0.238003 448.819 -44.8029 0.238003 448.819
2576 1 -60.1025 3.27765 441.006 -60.1025 3.27765 441.006
2574 1 -61.8017 3.25453 442.902 -61.8017 3.25453 442.902
2589 1 -52.2406 3.27342 441.565 -52.2406 3.27342 441.565
2586 1 -53.9396 3.25031 443.461 -53.9396 3.25031 443.461
2874 1 -55.6384 3.22726 445.358 -55.6384 3.22726 445.358
2871 1 -57.3371 3.20431 447.254 -57.3371 3.20431 447.254
3155 1 -59.0357 3.18147 449.151 -59.0357 3.18147 449.151
2607 1 -42.6807 3.2923 440.228 -42.6807 3.2923 440.228
2604 1 -44.3801 3.26923 442.124 -44.3801 3.26923 442.124
2600 1 -46.0791 3.24615 444.021 -46.0791 3.24615 444.021
2887 1 -47.7779 3.22311 445.917 -47.7779 3.22311 445.917
2884 1 -49.4764 3.20014 447.814 -49.4764 3.20014 447.814
3168 1 -51.1747 3.17729 449.711 -51.1747 3.17729 449.711
2900 1 -39.9187 3.21891 446.477 -39.9187 3.21891 446.477
2897 1 -41.6172 3.19588 448.374 -41.6172 3.19588 448.374
2582 1 -56.9153 1.8081 440.56 -56.9153 1.8081 440.56
2579 1 -58.6144 1.78494 442.456 -58.6144 1.78494 442.456
2866 1 -60.3135 1.76186 444.353 -60.3135 1.76186 444.353
2578 1 -59.2528 1.07551 440.058 -59.2528 1.07551 440.058
2595 1 -49.0539 1.80392 441.119 -49.0539 1.80392 441.119
2592 1 -50.753 1.78082 443.015 -50.753 1.78082 443.015
2880 1 -52.4518 1.75777 444.912 -52.4518 1.75777 444.912
2877 1 -54.1505 1.73479 446.809 -54.1505 1.73479 446.809
2873 1 -55.849 1.71194 448.705 -55.849 1.71194 448.705
2609 1 -41.1937 1.7997 441.679 -41.1937 1.7997 441.679
2606 1 -42.8929 1.77663 443.575 -42.8929 1.77663 443.575
2892 1 -44.5918 1.75357 445.472 -44.5918 1.75357 445.472
2890 1 -46.2904 1.73055 447.368 -46.2904 1.73055 447.368
3174 1 -47.9887 1.7076 449.265 -47.9887 1.7076 449.265
2618 1 -36.5206 3.26507 442.685 -36.5206 3.26507 442.685
2585 1 -54.5778 2.54075 441.062 -54.5778 2.54075 441.062
2583 1 -56.2769 2.51761 442.959 -56.2769 2.51761 442.959
2870 1 -57.9759 2.49453 444.855 -57.9759 2.49453 444.855
2867 1 -59.6747 2.47155 446.752 -59.6747 2.47155 446.752
2863 1 -61.3734 2.44869 448.648 -61.3734 2.44869 448.648
2599 1 -46.7169 2.53658 441.621 -46.7169 2.53658 441.621
2596 1 -48.416 2.51349 443.518 -48.416 2.51349 443.518
2883 1 -50.1148 2.49045 445.415 -50.1148 2.49045 445.415
2881 1 -51.8134 2.46749 447.311 -51.8134 2.46749 447.311
3164 1 -53.5118 2.44466 449.208 -53.5118 2.44466 449.208
2610 1 -40.5563 2.50931 444.078 -40.5563 2.50931 444.078
2896 1 -42.2552 2.48624 445.975 -42.2552 2.48624 445.975
2893 1 -43.9537 2.46322 447.871 -43.9537 2.46322 447.871
3178 1 -45.6519 2.44026 449.768 -45.6519 2.44026 449.768
2575 1 -60.9521 1.05235 441.954 -60.9521 1.05235 441.954
2591 1 -51.391 1.07127 440.616 -51.391 1.07127 440.616
2588 1 -53.0901 1.04813 442.513 -53.0901 1.04813 442.513
2876 1 -54.789 1.02505 444.409 -54.789 1.02505 444.409
2872 1 -56.4878 1.00205 446.306 -56.4878 1.00205 446.306
2869 1 -58.1864 0.979148 448.202 -58.1864 0.979148 448.202
2605 1 -43.5304 1.06704 441.176 -43.5304 1.06704 441.176
2602 1 -45.2296 1.04396 443.072 -45.2296 1.04396 443.072
2889 1 -46.9285 1.0209 444.969 -46.9285 1.0209 444.969
2886 1 -48.6272 0.997891 446.866 -48.6272 0.997891 446.866
3170 1 -50.3256 0.974974 448.762 -50.3256 0.974974 448.762
2899 1 -40.768 0.993663 447.426 -40.768 0.993663 447.426
3184 1 -42.4664 0.970664 449.322 -42.4664 0.970664 449.322
2580 1 -57.7649 4.01024 441.508 -57.7649 4.01024 441.508
2577 1 -59.464 3.98711 443.405 -59.464 3.98711 443.405
2864 1 -61.163 3.96408 445.301 -61.163 3.96408 445.301
2862 1 -62.0125 1.73888 446.249 -62.0125 1.73888 446.249
2594 1 -49.9035 4.00609 442.067 -49.9035 4.00609 442.067
2590 1 -51.6024 3.98301 443.964 -51.6024 3.98301 443.964
2878 1 -53.3012 3.95999 445.86 -53.3012 3.95999 445.86
2875 1 -54.9998 3.93708 447.757 -54.9998 3.93708 447.757
3159 1 -56.6982 3.9143 449.653 -56.6982 3.9143 449.653
2611 1 -40.3439 4.02495 440.731 -40.3439 4.02495 440.731
2608 1 -42.0434 4.00189 442.627 -42.0434 4.00189 442.627
2894 1 -43.7424 3.97882 444.523 -43.7424 3.97882 444.523
2891 1 -45.4411 3.95578 446.42 -45.4411 3.95578 446.42
2888 1 -47.1395 3.93279 448.317 -47.1395 3.93279 448.317
2904 1 -37.5824 3.95159 446.981 -37.5824 3.95159 446.981
2621 1 -34.8209 3.28809 440.789 -34.8209 3.28809 440.789
2617 1 -37.1574 2.5554 440.286 -37.1574 2.5554 440.286
2614 1 -38.8571 2.53238 442.182 -38.8571 2.53238 442.182
2908 1 -35.2463 0.256821 447.484 -35.2463 0.256821 447.484
2619 1 -35.6708 1.06286 441.737 -35.6708 1.06286 441.737
2906 1 -36.0956 2.45898 448.432 -36.0956 2.45898 448.432
2905 1 -36.7331 1.74941 446.032 -36.7331 1.74941 446.032
2620 1 -35.034 1.77253 444.136 -35.034 1.77253 444.136
3190 1 -39.2809 3.92852 448.877 -39.2809 3.92852 448.877
2902 1 -38.4317 1.72632 447.929 -38.4317 1.72632 447.929
2903 1 -38.2199 3.24199 444.581 -38.2199 3.24199 444.581
2615 1 -38.0073 0.33017 441.234 -38.0073 0.33017 441.234
2909 1 -34.3969 2.48213 446.536 -34.3969 2.48213 446.536
14 1 -53.5391 0.10227 399.579 -53.5391 4.52972 399.579
7 1 -58.1198 3.04053 398.679 -58.1198 3.04053 398.679
25 1 -45.6478 0.0984717 400.054 -45.6478 4.52592 400.054
38 1 -37.7529 0.0450306 400.566 -37.7529 4.47248 400.566
23 1 -47.3482 0.0583255 401.94 -47.3482 4.48578 401.94
287 1 -50.7455 4.43311 405.705 -50.7455 4.43311 405.705
878 1 -41.8179 4.33475 414.407 -41.8179 4.33475 414.407
579 1 -47.9841 4.36495 411.951 -47.9841 4.36495 411.951
585 1 -44.5786 4.40879 408.162 -44.5786 4.40879 408.162
290 1 -49.048 0.029773 403.813 -49.048 4.45723 403.813
11 1 -55.2082 0.0447565 401.394 -55.2082 4.47221 401.394
595 1 -38.4122 4.37822 410.618 -38.4122 4.37822 410.618
1134 1 -60.9535 4.30353 417.077 -60.9535 4.30353 417.077
283 1 -52.4482 4.41324 407.598 -52.4482 4.41324 407.598
582 1 -46.2813 4.38674 410.057 -46.2813 4.38674 410.057
276 1 -56.9205 0.0412706 403.259 -56.9205 4.46872 403.259
569 1 -54.1508 4.39365 409.492 -54.1508 4.39365 409.492
847 1 -59.2526 4.32626 415.18 -59.2526 4.32626 415.18
556 1 -62.0149 4.40129 408.934 -62.0149 4.40129 408.934
272 1 -58.6209 0.0240922 405.138 -58.6209 4.45154 405.138
3 1 -59.9397 3.0463 400.371 -59.9397 3.0463 400.371
35 1 -39.464 0.0448441 402.467 -39.464 4.4723 402.467
598 1 -36.7091 4.39982 408.724 -36.7091 4.39982 408.724