ITEM: TIMESTEP
0
ITEM: NUMBER OF ATOMS
4630
ITEM: BOX BOUNDS xy xz yz pp pp pp
-5.8340988501799998e+01 1.0136002035000000e+02 0.0000000000000000e+00
0.0000000000000000e+00 4.4274527100805940e+00 0.0000000000000000e+00
3.8000000000000000e+02 5.0000000000000000e+02 0.0000000000000000e+00
ITEM: ATOMS id type x y z xu yu zu
27 1 -42.9064 2.587 398.455 -42.9064 2.587 398.455
36 1 -37.4527 1.83875 398.305 -37.4527 1.83875 398.305
31 1 -40.5244 3.26204 398.804 -40.5244 3.26204 398.804
22 1 -45.9926 4.01664 398.989 -45.9926 4.01664 398.989
20 1 -46.7715 1.80064 399.893 -46.7715 1.80064 399.893
40 1 -35.0736 2.51655 398.66 -35.0736 2.51655 398.66
34 1 -38.2139 4.03959 399.197 -38.2139 4.03959 399.197
17 1 -49.0869 1.04044 399.51 -49.0869 1.04044 399.51
9 1 -54.4878 1.7201 399.633 -54.4878 1.7201 399.633
43 1 -32.765 3.29512 399.056 -32.765 3.29512 399.056
12 1 -52.2134 2.56265 400.056 -52.2134 2.56265 400.056
5 1 -56.8626 1.09074 399.273 -56.8626 1.09074 399.273
29 1 -41.3253 1.03639 399.707 -41.3253 1.03639 399.707
853 1 -53.2816 3.01851 414.573 -53.2816 3.01851 414.573
873 1 -42.4214 1.54083 414.264 -42.4214 1.54083 414.264
865 1 -46.3338 0.777313 415.825 -46.3338 0.777313 415.825
1174 1 -33.9488 2.22211 416.933 -33.9488 2.22211 416.933
883 1 -36.9877 0.80024 414.115 -36.9877 0.80024 414.115
863 1 -47.8531 2.28064 414.418 -47.8531 2.28064 414.418
315 1 -32.8427 1.73547 402.41 -32.8427 1.73547 402.41
307 1 -37.5627 3.17833 404.948 -37.5627 3.17833 404.948
1150 1 -47.9288 0.741013 417.805 -47.9288 0.741013 417.805
855 1 -51.7631 1.51536 415.98 -51.7631 1.51536 415.98
310 1 -35.9661 3.20987 402.976 -35.9661 3.20987 402.976
871 1 -43.2192 3.73704 415.253 -43.2192 3.73704 415.253
16 1 -49.8755 3.24312 400.418 -49.8755 3.24312 400.418
309 1 -36.039 1.67515 406.355 -36.039 1.67515 406.355
1156 1 -44.8148 3.70148 417.232 -44.8148 3.70148 417.232
867 1 -45.5363 3.00892 414.835 -45.5363 3.00892 414.835
1159 1 -42.4981 0.00249775 417.65 -42.4981 4.42995 417.65
1168 1 -37.0654 3.69056 417.501 -37.0654 3.69056 417.501
1170 1 -36.2667 1.49405 416.512 -36.2667 1.49405 416.512
594 1 -36.8371 3.87292 407.343 -36.8371 3.87292 407.343
37 1 -36.6862 2.50678 400.592 -36.6862 2.50678 400.592
851 1 -54.0784 0.786439 415.563 -54.0784 0.786439 415.563
857 1 -50.9662 3.74745 414.99 -50.9662 3.74745 414.99
592 1 -37.635 1.64283 408.331 -37.635 1.64283 408.331
849 1 -54.8752 2.98166 416.553 -54.8752 2.98166 416.553
877 1 -40.1038 2.26884 414.683 -40.1038 2.26884 414.683
1143 1 -52.5602 3.7106 416.97 -52.5602 3.7106 416.97
1140 1 -54.1544 3.67314 418.951 -54.1544 3.67314 418.951
845 1 -57.1901 2.25308 416.137 -57.1901 2.25308 416.137
875 1 -40.9019 0.0377254 415.672 -40.9019 4.46518 415.672
886 1 -35.3909 0.833982 412.138 -35.3909 0.833982 412.138
891 1 -32.2731 3.79157 411.573 -32.2731 3.79157 411.573
39 1 -35.1724 1.00874 401.984 -35.1724 1.00874 401.984
1177 1 -32.4298 0.719476 418.343 -32.4298 0.719476 418.343
1167 1 -37.864 1.45946 418.489 -37.864 1.45946 418.489
8 1 -55.31 3.98649 400.648 -55.31 3.98649 400.648
869 1 -44.017 1.50562 416.243 -44.017 1.50562 416.243
1136 1 -56.4691 2.94404 418.534 -56.4691 2.94404 418.534
1162 1 -40.9795 2.92702 419.058 -40.9795 2.92702 419.058
15 1 -50.6805 1.0279 401.451 -50.6805 1.0279 401.451
280 1 -52.2707 0.999329 403.423 -52.2707 0.999329 403.423
277 1 -53.8651 0.976991 405.397 -53.8651 0.976991 405.397
273 1 -55.4523 0.942114 407.379 -55.4523 0.942114 407.379
560 1 -57.0428 0.907172 409.361 -57.0428 0.907172 409.361
557 1 101.066 0.871592 411.342 -58.6347 0.871592 411.342
26 1 -42.9275 1.02628 401.697 -42.9275 1.02628 401.697
294 1 -44.5238 0.998919 403.687 -44.5238 0.998919 403.687
291 1 -46.1165 0.964471 405.667 -46.1165 0.964471 405.667
576 1 -47.7081 0.929123 407.645 -47.7081 0.929123 407.645
573 1 -49.3002 0.894542 409.623 -49.3002 0.894542 409.623
570 1 -50.8922 0.859092 411.602 -50.8922 0.859092 411.602
854 1 -52.485 0.822979 413.582 -52.485 0.822979 413.582
305 1 -38.3598 0.948685 405.934 -38.3598 0.948685 405.934
589 1 -39.9545 0.915641 407.911 -39.9545 0.915641 407.911
586 1 -41.5491 0.881951 409.889 -41.5491 0.881951 409.889
872 1 -43.1439 0.847714 411.867 -43.1439 0.847714 411.867
599 1 -33.794 0.867008 410.163 -33.794 0.867008 410.163
4 1 -56.9202 3.99676 402.567 -56.9202 3.99676 402.567
268 1 -58.4919 3.95225 404.568 -58.4919 3.95225 404.568
1152 1 -47.1313 2.97297 416.815 -47.1313 2.97297 416.815
19 1 -47.5788 3.98682 400.888 -47.5788 3.98682 400.888
286 1 -49.1634 3.95451 402.838 -49.1634 3.95451 402.838
282 1 -50.7491 3.92529 404.823 -50.7491 3.92529 404.823
279 1 -52.3414 3.89776 406.803 -52.3414 3.89776 406.803
565 1 -53.9314 3.86452 408.785 -53.9314 3.86452 408.785
563 1 -55.5229 3.8297 410.767 -55.5229 3.8297 410.767
846 1 -57.1155 3.79417 412.748 -57.1155 3.79417 412.748
32 1 -39.8133 3.98609 401.155 -39.8133 3.98609 401.155
300 1 -41.4086 3.95533 403.122 -41.4086 3.95533 403.122
297 1 -43.001 3.92237 405.097 -43.001 3.92237 405.097
293 1 -44.5935 3.8889 407.074 -44.5935 3.8889 407.074
578 1 -46.1862 3.8544 409.053 -46.1862 3.8544 409.053
575 1 -47.7794 3.81952 411.031 -47.7794 3.81952 411.031
860 1 -49.3726 3.78382 413.01 -49.3726 3.78382 413.01
591 1 -38.4328 3.83993 409.32 -38.4328 3.83993 409.32
588 1 -40.0282 3.80621 411.297 -40.0282 3.80621 411.297
874 1 -41.6236 3.77192 413.275 -41.6236 3.77192 413.275
10 1 -53.7969 2.49442 402.021 -53.7969 2.49442 402.021
274 1 -55.393 2.48648 403.985 -55.393 2.48648 403.985
271 1 -56.9733 2.4476 405.973 -56.9733 2.4476 405.973
558 1 -58.5631 2.41237 407.954 -58.5631 2.41237 407.954
24 1 -44.4742 2.53913 400.346 -44.4742 2.53913 400.346
21 1 -46.0585 2.50168 402.288 -46.0585 2.50168 402.288
288 1 -47.6414 2.46586 404.261 -47.6414 2.46586 404.261
285 1 -49.2297 2.42937 406.237 -49.2297 2.42937 406.237
571 1 -50.8209 2.39626 408.214 -50.8209 2.39626 408.214
568 1 -52.4118 2.36158 410.194 -52.4118 2.36158 410.194
852 1 -54.0038 2.32603 412.175 -54.0038 2.32603 412.175
848 1 -55.5968 2.29 414.156 -55.5968 2.29 414.156
306 1 -38.2882 2.48091 402.551 -38.2882 2.48091 402.551
302 1 -39.8836 2.45098 404.524 -39.8836 2.45098 404.524
299 1 -41.477 2.41853 406.502 -41.477 2.41853 406.502
583 1 -43.0707 2.38522 408.481 -43.0707 2.38522 408.481
581 1 -44.6647 2.35106 410.46 -44.6647 2.35106 410.46
866 1 -46.2589 2.31626 412.438 -46.2589 2.31626 412.438
880 1 -38.5077 2.30318 412.706 -38.5077 2.30318 412.706
312 1 -34.442 1.70628 404.38 -34.442 1.70628 404.38
2 1 -58.4616 1.10284 401.194 -58.4616 1.10284 401.194
13 1 -51.4683 3.22329 402.416 -51.4683 3.22329 402.416
278 1 -53.0677 3.20263 404.402 -53.0677 3.20263 404.402
275 1 -54.6579 3.17361 406.385 -54.6579 3.17361 406.385
562 1 -56.2469 3.13825 408.37 -56.2469 3.13825 408.37
559 1 -57.8387 3.10325 410.351 -57.8387 3.10325 410.351
1166 1 -38.6627 3.65568 419.478 -38.6627 3.65568 419.478
889 1 -33.072 1.56143 412.56 -33.072 1.56143 412.56
28 1 -42.1334 3.25433 400.738 -42.1334 3.25433 400.738
296 1 -43.7298 3.22717 402.702 -43.7298 3.22717 402.702
292 1 -45.3213 3.1957 404.678 -45.3213 3.1957 404.678
289 1 -46.9121 3.16064 406.656 -46.9121 3.16064 406.656
574 1 -48.504 3.1257 408.634 -48.504 3.1257 408.634
572 1 -50.0962 3.09072 410.613 -50.0962 3.09072 410.613
856 1 -51.6885 3.05483 412.592 -51.6885 3.05483 412.592
303 1 -39.1576 3.14585 406.922 -39.1576 3.14585 406.922
587 1 -40.7519 3.11253 408.9 -40.7519 3.11253 408.9
584 1 -42.3465 3.07861 410.878 -42.3465 3.07861 410.878
870 1 -43.9413 3.0441 412.856 -43.9413 3.0441 412.856
6 1 -56.1242 1.79326 401.574 -56.1242 1.79326 401.574
270 1 -57.7007 1.75768 403.57 -57.7007 1.75768 403.57
890 1 -32.3508 2.25575 414.958 -32.3508 2.25575 414.958
18 1 -48.3657 1.75778 401.861 -48.3657 1.75778 401.861
284 1 -49.9531 1.72738 403.837 -49.9531 1.72738 403.837
281 1 -51.5456 1.6989 405.815 -51.5456 1.6989 405.815
567 1 -53.1365 1.66811 407.795 -53.1365 1.66811 407.795
564 1 -54.727 1.63346 409.777 -54.727 1.63346 409.777
561 1 -56.3192 1.59837 411.758 -56.3192 1.59837 411.758
844 1 -57.9119 1.56222 413.739 -57.9119 1.56222 413.739
33 1 -39.0285 1.78935 400.191 -39.0285 1.78935 400.191
30 1 -40.6181 1.7543 402.127 -40.6181 1.7543 402.127
298 1 -42.2053 1.72446 404.105 -42.2053 1.72446 404.105
295 1 -43.7971 1.69202 406.085 -43.7971 1.69202 406.085
580 1 -45.3898 1.65792 408.063 -45.3898 1.65792 408.063
577 1 -46.9828 1.62326 410.042 -46.9828 1.62326 410.042
862 1 -48.576 1.58803 412.021 -48.576 1.58803 412.021
590 1 -39.2304 1.60944 410.308 -39.2304 1.60944 410.308
876 1 -40.8258 1.57541 412.286 -40.8258 1.57541 412.286
1163 1 -40.1811 0.730983 418.069 -40.1811 0.730983 418.069
1153 1 -46.4105 3.66523 419.212 -46.4105 3.66523 419.212
311 1 -35.24 3.9049 405.368 -35.24 3.9049 405.368
42 1 -33.5788 1.04476 400.051 -33.5788 1.04476 400.051
1135 1 -57.266 0.711201 419.525 -57.266 0.711201 419.525
1171 1 -35.5466 2.18789 418.909 -35.5466 2.18789 418.909
1139 1 -54.9515 1.44043 419.941 -54.9515 1.44043 419.941
601 1 -32.9953 3.09691 409.175 -32.9953 3.09691 409.175
313 1 -33.6399 3.93623 403.392 -33.6399 3.93623 403.392
858 1 -50.1693 1.55196 414 -50.1693 1.55196 414
868 1 -44.7388 0.812884 413.846 -44.7388 0.812884 413.846
1147 1 -50.2447 0.0121553 417.387 -50.2447 4.43961 417.387
843 1 100.993 3.75738 414.73 -58.7082 3.75738 414.73
593 1 -36.9116 2.33694 410.729 -36.9116 2.33694 410.729
308 1 -36.7645 0.979914 403.958 -36.7645 0.979914 403.958
861 1 -48.6502 0.0488199 415.408 -48.6502 4.47627 415.408
1158 1 -43.2962 2.19837 418.64 -43.2962 2.19837 418.64
884 1 -36.1893 3.03092 413.126 -36.1893 3.03092 413.126
881 1 -37.786 2.99687 415.103 -37.786 2.99687 415.103
885 1 -35.468 3.72485 415.524 -35.468 3.72485 415.524
859 1 -49.4474 2.24428 416.397 -49.4474 2.24428 416.397
596 1 -35.3154 2.36995 408.753 -35.3154 2.36995 408.753
879 1 -38.5844 0.7659 416.092 -38.5844 0.7659 416.092
1172 1 -34.7477 -0.00865461 417.921 -34.7477 4.4188 417.921
1154 1 -45.6126 1.46972 418.222 -45.6126 1.46972 418.222
887 1 -34.6694 1.52806 414.536 -34.6694 1.52806 414.536
597 1 -34.5925 3.06432 411.15 -34.5925 3.06432 411.15
1161 1 -41.7 2.23392 416.661 -41.7 2.23392 416.661
1138 1 -55.6721 0.74922 417.544 -55.6721 0.74922 417.544
1149 1 -48.7264 2.93634 418.794 -48.7264 2.93634 418.794
41 1 -34.3665 3.24027 401.013 -34.3665 3.24027 401.013
888 1 -33.8707 3.75855 413.548 -33.8707 3.75855 413.548
1165 1 -39.3828 2.96224 417.08 -39.3828 2.96224 417.08
1141 1 -53.3573 1.47822 417.961 -53.3573 1.47822 417.961
1145 1 -51.042 2.20733 418.377 -51.042 2.20733 418.377
600 1 -33.7185 2.40202 406.778 -33.7185 2.40202 406.778
1148 1 -49.524 0.704061 419.784 -49.524 0.704061 419.784
882 1 -37.7097 0.106413 411.717 -37.7097 4.53387 411.717
1157 1 -44.0943 4.39407 419.629 -44.0943 4.39407 419.629
1144 1 -51.8394 4.40235 419.368 -51.8394 4.40235 419.368
602 1 -32.1963 0.899156 408.188 -32.1963 0.899156 408.188
1755 1 -31.8745 2.76791 427.509 -31.8745 2.76791 427.509
1460 1 -36.4258 2.84678 423.283 -36.4258 2.84678 423.283
2308 1 -45.2884 3.3146 437.555 -45.2884 3.3146 437.555
2316 1 -40.5822 1.89086 435.001 -40.5822 1.89086 435.001
2312 1 -42.9752 4.04624 437.972 -42.9752 4.04624 437.972
1464 1 -34.109 3.57578 423.704 -34.109 3.57578 423.704
1461 1 -35.6266 0.650632 422.295 -35.6266 0.650632 422.295
2039 1 -34.3566 3.39053 433.859 -34.3566 3.39053 433.859
2613 1 -36.0361 1.81395 439.224 -36.0361 1.81395 439.224
1467 1 -31.792 4.30463 424.125 -31.792 4.30463 424.125
2603 1 -41.4594 2.54463 439.379 -41.4594 2.54463 439.379
1443 1 -45.6905 4.35751 421.609 -45.6905 4.35751 421.609
1748 1 -35.7078 3.54057 425.68 -35.7078 3.54057 425.68
2023 1 -42.896 1.15957 434.584 -42.896 1.15957 434.584
2310 1 -43.7723 1.81282 438.962 -43.7723 1.81282 438.962
1151 1 -47.2083 1.43313 420.201 -47.2083 1.43313 420.201
2303 1 -48.3987 0.34953 438.13 -48.3987 0.34953 438.13
2299 1 -50.7122 4.04561 437.713 -50.7122 4.04561 437.713
2033 1 -37.4699 0.427336 434.429 -37.4699 0.427336 434.429
1433 1 -51.1192 0.666465 421.765 -51.1192 0.666465 421.765
1430 1 -52.7143 0.628236 423.746 -52.7143 0.628236 423.746
1426 1 -54.3093 0.589439 425.727 -54.3093 0.589439 425.727
1713 1 -55.9043 0.550198 427.708 -55.9043 0.550198 427.708
1710 1 -57.4992 0.510677 429.69 -57.4992 0.510677 429.69
2330 1 -32.1256 2.58319 437.663 -32.1256 2.58319 437.663
1160 1 -41.7779 0.695448 420.047 -41.7779 0.695448 420.047
1447 1 -43.3746 0.65926 422.026 -43.3746 0.65926 422.026
1444 1 -44.9712 0.622403 424.005 -44.9712 0.622403 424.005
1730 1 -46.5675 0.584873 425.985 -46.5675 0.584873 425.985
1727 1 -48.1634 0.546698 427.966 -48.1634 0.546698 427.966
1724 1 -49.759 0.50795 429.946 -49.759 0.50795 429.946
2008 1 -51.3541 0.468751 431.928 -51.3541 0.468751 431.928
2006 1 -52.9488 0.42926 433.909 -52.9488 0.42926 433.909
1458 1 -37.2249 0.615305 424.272 -37.2249 0.615305 424.272
1743 1 -38.8229 0.579312 426.249 -38.8229 0.579312 426.249
1740 1 -40.4205 0.542613 428.227 -40.4205 0.542613 428.227
2026 1 -42.0176 0.505191 430.207 -42.0176 0.505191 430.207
2022 1 -43.6141 0.467071 432.186 -43.6141 0.467071 432.186
2019 1 -45.2098 0.428329 434.167 -45.2098 0.428329 434.167
2309 1 -44.4912 1.12055 436.564 -44.4912 1.12055 436.564
1137 1 -55.7487 3.635 420.932 -55.7487 3.635 420.932
1421 1 -57.3431 3.59622 422.914 -57.3431 3.59622 422.914
1439 1 -48.0062 3.62831 421.191 -48.0062 3.62831 421.191
1435 1 -49.6018 3.59073 423.172 -49.6018 3.59073 423.172
1432 1 -51.1972 3.55252 425.152 -51.1972 3.55252 425.152
1719 1 -52.7925 3.51374 427.133 -52.7925 3.51374 427.133
1716 1 -54.3875 3.47452 429.115 -54.3875 3.47452 429.115
2001 1 -55.9825 3.43502 431.096 -55.9825 3.43502 431.096
1998 1 -57.5773 3.39542 433.078 -57.5773 3.39542 433.078
2323 1 -35.9545 3.35334 435.837 -35.9545 3.35334 435.837
1453 1 -40.2599 3.62018 421.455 -40.2599 3.62018 421.455
1450 1 -41.8571 3.58404 423.434 -41.8571 3.58404 423.434
1446 1 -43.454 3.54722 425.413 -43.454 3.54722 425.413
1732 1 -45.0506 3.50972 427.392 -45.0506 3.50972 427.392
1729 1 -46.6468 3.47156 429.372 -46.6468 3.47156 429.372
2014 1 -48.2424 3.43282 431.353 -48.2424 3.43282 431.353
2011 1 -49.8375 3.39361 433.334 -49.8375 3.39361 433.334
1745 1 -37.3062 3.50468 427.657 -37.3062 3.50468 427.657
1742 1 -38.9042 3.46807 429.635 -38.9042 3.46807 429.635
2028 1 -40.5015 3.4307 431.614 -40.5015 3.4307 431.614
2025 1 -42.098 3.3926 433.594 -42.098 3.3926 433.594
1427 1 -54.2315 2.13155 422.339 -54.2315 2.13155 422.339
1424 1 -55.8262 2.09275 424.32 -55.8262 2.09275 424.32
1711 1 -57.421 2.05348 426.302 -57.421 2.05348 426.302
2322 1 -36.7531 1.12069 436.826 -36.7531 1.12069 436.826
1750 1 -34.1909 2.03853 427.088 -34.1909 2.03853 427.088
1155 1 -44.8924 2.16215 420.619 -44.8924 2.16215 420.619
1441 1 -46.4885 2.12526 422.598 -46.4885 2.12526 422.598
1438 1 -48.0845 2.0877 424.578 -48.0845 2.0877 424.578
1725 1 -49.6802 2.04951 426.559 -49.6802 2.04951 426.559
1722 1 -51.2757 2.01075 428.54 -51.2757 2.01075 428.54
1718 1 -52.8708 1.97154 430.521 -52.8708 1.97154 430.521
2003 1 -54.4657 1.93206 432.503 -54.4657 1.93206 432.503
2000 1 -56.0603 1.89247 434.484 -56.0603 1.89247 434.484
1459 1 -37.1445 2.15308 420.886 -37.1445 2.15308 420.886
1455 1 -38.7423 2.11766 422.863 -38.7423 2.11766 422.863
1452 1 -40.3399 2.08158 424.841 -40.3399 2.08158 424.841
1737 1 -41.9372 2.04481 426.82 -41.9372 2.04481 426.82
1735 1 -43.534 2.00734 428.799 -43.534 2.00734 428.799
2020 1 -45.1303 1.9692 430.779 -45.1303 1.9692 430.779
2017 1 -46.726 1.93046 432.76 -46.726 1.93046 432.76
2034 1 -37.388 1.96624 431.043 -37.388 1.96624 431.043
2031 1 -38.9856 1.92893 433.021 -38.9856 1.92893 433.021
2029 1 -39.784 4.12371 434.011 -39.784 4.12371 434.011
1146 1 -50.3216 2.89907 420.775 -50.3216 2.89907 420.775
1431 1 -51.9167 2.86115 422.755 -51.9167 2.86115 422.755
1428 1 -53.5118 2.82263 424.736 -53.5118 2.82263 424.736
1715 1 -55.1068 2.78359 426.718 -55.1068 2.78359 426.718
1712 1 -56.7018 2.74419 428.699 -56.7018 2.74419 428.699
1708 1 -58.2967 2.70459 430.681 -58.2967 2.70459 430.681
1747 1 -35.7898 2.00277 429.065 -35.7898 2.00277 429.065
1449 1 -42.5763 2.89116 421.037 -42.5763 2.89116 421.037
1445 1 -44.1729 2.85464 423.016 -44.1729 2.85464 423.016
1442 1 -45.7693 2.81745 424.995 -45.7693 2.81745 424.995
1728 1 -47.3655 2.77959 426.975 -47.3655 2.77959 426.975
1726 1 -48.9612 2.74112 428.956 -48.9612 2.74112 428.956
2010 1 -50.5566 2.70212 430.937 -50.5566 2.70212 430.937
2007 1 -52.1515 2.66276 432.918 -52.1515 2.66276 432.918
1456 1 -38.0239 2.81112 425.26 -38.0239 2.81112 425.26
1741 1 -39.6218 2.77478 427.238 -39.6218 2.77478 427.238
1738 1 -41.2192 2.73772 429.217 -41.2192 2.73772 429.217
2024 1 -42.816 2.69994 431.196 -42.816 2.69994 431.196
2021 1 -44.412 2.6615 433.177 -44.412 2.6615 433.177
2035 1 -36.6712 2.65979 433.44 -36.6712 2.65979 433.44
1754 1 -32.5917 2.07361 425.112 -32.5917 2.07361 425.112
1423 1 -56.5459 1.40196 421.923 -56.5459 1.40196 421.923
1420 1 -58.1404 1.3629 423.904 -58.1404 1.3629 423.904
2044 1 -31.242 1.92535 433.29 -31.242 1.92535 433.29
1437 1 -48.804 1.39588 422.181 -48.804 1.39588 422.181
1434 1 -50.3995 1.35797 424.162 -50.3995 1.35797 424.162
1721 1 -51.9948 1.31946 426.143 -51.9948 1.31946 426.143
1717 1 -53.59 1.28045 428.124 -53.59 1.28045 428.124
1714 1 -55.185 1.24107 430.106 -55.185 1.24107 430.106
1999 1 -56.7799 1.2015 432.087 -56.7799 1.2015 432.087
1997 1 -58.3747 1.16192 434.069 -58.3747 1.16192 434.069
1164 1 -39.4613 1.42428 420.466 -39.4613 1.42428 420.466
1451 1 -41.0585 1.38847 422.444 -41.0585 1.38847 422.444
1448 1 -42.6556 1.35199 424.423 -42.6556 1.35199 424.423
1734 1 -44.2524 1.31483 426.402 -44.2524 1.31483 426.402
1731 1 -45.8488 1.27699 428.382 -45.8488 1.27699 428.382
2016 1 -47.4447 1.23853 430.363 -47.4447 1.23853 430.363
2012 1 -49.04 1.19954 432.344 -49.04 1.19954 432.344
2009 1 -50.6349 1.16016 434.325 -50.6349 1.16016 434.325
1746 1 -36.507 1.30899 426.668 -36.507 1.30899 426.668
1744 1 -38.1052 1.27274 428.646 -38.1052 1.27274 428.646
2030 1 -39.7029 1.23575 430.624 -39.7029 1.23575 430.624
2027 1 -41.2999 1.19801 432.604 -41.2999 1.19801 432.604
2325 1 -35.1557 1.15832 434.847 -35.1557 1.15832 434.847
1749 1 -34.9904 4.23447 428.077 -34.9904 4.23447 428.077
1425 1 -55.0288 4.32594 423.33 -55.0288 4.32594 423.33
1736 1 -42.7357 4.23989 427.81 -42.7357 4.23989 427.81
1142 1 -52.6367 2.16976 420.358 -52.6367 2.16976 420.358
1720 1 -52.0733 4.20492 429.531 -52.0733 4.20492 429.531
2005 1 -53.6683 4.16555 431.512 -53.6683 4.16555 431.512
2002 1 -55.263 4.12599 433.494 -55.263 4.12599 433.494
1169 1 -36.3456 4.38428 419.898 -36.3456 4.38428 419.898
1723 1 -50.478 4.24392 427.549 -50.478 4.24392 427.549
1440 1 -47.2865 4.32029 423.588 -47.2865 4.32029 423.588
1733 1 -44.3322 4.20208 429.789 -44.3322 4.20208 429.789
2018 1 -45.9282 4.16363 431.77 -45.9282 4.16363 431.77
2015 1 -47.5236 4.12463 433.75 -47.5236 4.12463 433.75
2036 1 -36.589 4.19833 430.054 -36.589 4.19833 430.054
2032 1 -38.1869 4.16141 432.032 -38.1869 4.16141 432.032
2326 1 -34.4394 1.85201 437.244 -34.4394 1.85201 437.244
1752 1 -33.3913 4.26988 426.1 -33.3913 4.26988 426.1
1457 1 -37.9434 4.34917 421.875 -37.9434 4.34917 421.875
2043 1 -31.9579 1.23095 430.894 -31.9579 1.23095 430.894
2286 1 -57.6547 1.85296 436.466 -57.6547 1.85296 436.466
2319 1 -38.3491 1.08224 438.806 -38.3491 1.08224 438.806
1436 1 -48.8824 4.28241 425.569 -48.8824 4.28241 425.569
1422 1 -56.6236 4.28689 425.311 -56.6236 4.28689 425.311
1173 1 -34.0282 0.685342 420.319 -34.0282 0.685342 420.319
2293 1 -53.823 1.08096 438.288 -53.823 1.08096 438.288
2289 1 -56.1372 0.350136 437.873 -56.1372 0.350136 437.873
2295 1 -52.3056 4.00596 439.695 -52.3056 4.00596 439.695
1465 1 -33.3096 1.37942 422.716 -33.3096 1.37942 422.716
2315 1 -40.6621 0.350505 438.389 -40.6621 0.350505 438.389
2331 1 -32.0418 4.12109 434.278 -32.0418 4.12109 434.278
2297 1 -51.509 1.81205 438.704 -51.509 1.81205 438.704
2324 1 -35.2379 4.04682 438.234 -35.2379 4.04682 438.234
2306 1 -46.0854 1.0811 438.546 -46.0854 1.0811 438.546
2285 1 -57.731 0.310867 439.854 -57.731 0.310867 439.854
1462 1 -34.9084 1.34453 424.692 -34.9084 1.34453 424.692
1751 1 -33.474 2.73264 429.485 -33.474 2.73264 429.485
2329 1 -32.8413 1.88915 435.267 -32.8413 1.88915 435.267
2042 1 -32.7577 3.42684 431.882 -32.7577 3.42684 431.882
2041 1 -33.5572 1.19507 432.87 -33.5572 1.19507 432.87
2593 1 -46.8821 3.275 439.537 -46.8821 3.275 439.537
2328 1 -32.9245 0.350794 438.652 -32.9245 0.350794 438.652
2301 1 -49.1954 2.54341 439.12 -49.1954 2.54341 439.12
1466 1 -32.5101 3.61037 421.728 -32.5101 3.61037 421.728
2298 1 -51.4321 3.35411 435.316 -51.4321 3.35411 435.316
2321 1 -37.5513 3.31528 437.816 -37.5513 3.31528 437.816
2313 1 -42.1778 1.85211 436.981 -42.1778 1.85211 436.981
2294 1 -53.0261 3.31448 437.298 -53.0261 3.31448 437.298
2304 1 -47.6017 2.58307 437.139 -47.6017 2.58307 437.139
2300 1 -49.9153 1.85171 436.723 -49.9153 1.85171 436.723
2290 1 -55.3403 2.5836 436.882 -55.3403 2.5836 436.882
2318 1 -39.0666 0.389277 436.408 -39.0666 0.389277 436.408
2327 1 -33.6405 4.08442 436.255 -33.6405 4.08442 436.255
2004 1 -53.7461 2.62319 434.9 -53.7461 2.62319 434.9
2013 1 -48.321 1.89124 434.741 -48.321 1.89124 434.741
2288 1 -56.8575 4.08642 435.475 -56.8575 4.08642 435.475
2037 1 -35.8722 0.464586 432.451 -35.8722 0.464586 432.451
1739 1 -41.1386 4.27701 425.831 -41.1386 4.27701 425.831
1753 1 -32.6743 0.536638 428.497 -32.6743 0.536638 428.497
2307 1 -46.0073 2.62249 435.157 -46.0073 2.62249 435.157
2314 1 -41.3802 4.08529 435.991 -41.3802 4.08529 435.991
2040 1 -34.2736 0.501007 430.473 -34.2736 0.501007 430.473
2320 1 -38.2684 2.62213 435.419 -38.2684 2.62213 435.419
2292 1 -54.5432 0.389659 435.891 -54.5432 0.389659 435.891
2311 1 -43.6937 3.35385 435.574 -43.6937 3.35385 435.574
2302 1 -49.1182 4.08523 435.732 -49.1182 4.08523 435.732
2296 1 -52.2291 1.12057 436.307 -52.2291 1.12057 436.307
1463 1 -34.8274 2.88179 421.307 -34.8274 2.88179 421.307
2287 1 -56.9341 2.54419 438.863 -56.9341 2.54419 438.863
2291 1 -54.6197 3.27493 439.279 -54.6197 3.27493 439.279
2317 1 -39.8645 2.5837 437.398 -39.8645 2.5837 437.398
2038 1 -35.073 2.69663 431.462 -35.073 2.69663 431.462
2305 1 -46.8046 0.389093 436.148 -46.8046 0.389093 436.148
2332 1 -31.3263 0.387888 436.675 -31.3263 0.387888 436.675
1709 1 -58.2185 4.24745 427.293 -58.2185 4.24745 427.293
1468 1 -31.7106 1.41372 420.74 -31.7106 1.41372 420.74
1454 1 -39.5411 4.31343 423.852 -39.5411 4.31343 423.852
1429 1 -53.4341 4.36446 421.348 -53.4341 4.36446 421.348
1133 1 -58.063 2.90563 420.516 -58.063 2.90563 420.516
1175 1 -33.229 2.91621 419.331 -33.229 2.91621 419.331
2616 1 -33.8042 1.00585 443.029 -33.8042 1.00585 443.029
2901 1 -35.3979 0.966432 445.01 -35.3979 0.966432 445.01
2907 1 -32.2898 3.93211 444.437 -32.2898 3.93211 444.437
3194 1 -33.1637 0.157326 448.818 -33.1637 0.157326 448.818
2587 1 -49.9919 0.309835 440.111 -49.9919 0.309835 440.111
2597 1 -44.5691 4.00676 439.953 -44.5691 4.00676 439.953
2584 1 -51.5845 0.270209 442.093 -51.5845 0.270209 442.093
2581 1 -53.1764 0.23085 444.075 -53.1764 0.23085 444.075
2868 1 -54.7678 0.191943 446.057 -54.7678 0.191943 446.057
2865 1 -56.3588 0.153651 448.038 -56.3588 0.153651 448.038
2601 1 -42.2563 0.311179 440.37 -42.2563 0.311179 440.37
2598 1 -43.8493 0.271512 442.352 -43.8493 0.271512 442.352
2885 1 -45.441 0.231742 444.334 -45.441 0.231742 444.334
2882 1 -47.0316 0.192109 446.317 -47.0316 0.192109 446.317
2879 1 -48.6213 0.15285 448.299 -48.6213 0.15285 448.299
2612 1 -36.1162 0.273771 442.612 -36.1162 0.273771 442.612
2898 1 -37.7093 0.234199 444.593 -37.7093 0.234199 444.593
2895 1 -39.3006 0.194286 446.576 -39.3006 0.194286 446.576
3180 1 -40.8903 0.154336 448.559 -40.8903 0.154336 448.559
2576 1 -56.2129 3.23563 441.261 -56.2129 3.23563 441.261
2574 1 -57.8057 3.19676 443.242 -57.8057 3.19676 443.242
2589 1 -48.4749 3.23528 441.519 -48.4749 3.23528 441.519
2586 1 -50.0668 3.19564 443.501 -50.0668 3.19564 443.501
2874 1 -51.658 3.15628 445.483 -51.658 3.15628 445.483
2871 1 -53.2486 3.11739 447.465 -53.2486 3.11739 447.465
3155 1 -54.8388 3.07914 449.446 -54.8388 3.07914 449.446
2607 1 -39.1466 3.27648 439.796 -39.1466 3.27648 439.796
2604 1 -40.7405 3.23709 441.777 -40.7405 3.23709 441.777
2600 1 -42.333 3.19736 443.759 -42.333 3.19736 443.759
2887 1 -43.9241 3.15755 445.742 -43.9241 3.15755 445.742
2884 1 -45.514 3.11791 447.725 -45.514 3.11791 447.725
3168 1 -47.1028 3.07871 449.708 -47.1028 3.07871 449.708
2900 1 -36.194 3.16025 446.001 -36.194 3.16025 446.001
2897 1 -37.7846 3.12022 447.984 -37.7846 3.12022 447.984
2582 1 -53.1021 1.77246 440.686 -53.1021 1.77246 440.686
2579 1 -54.6947 1.73313 442.668 -54.6947 1.73313 442.668
2866 1 -56.2868 1.69423 444.649 -56.2868 1.69423 444.649
2578 1 -55.4163 1.04151 440.27 -55.4163 1.04151 440.27
2595 1 -45.3656 1.7732 440.944 -45.3656 1.7732 440.944
2592 1 -46.9579 1.73345 442.926 -46.9579 1.73345 442.926
2880 1 -48.5492 1.69381 444.909 -48.5492 1.69381 444.909
2877 1 -50.1397 1.65449 446.891 -50.1397 1.65449 446.891
2873 1 -51.7294 1.61568 448.873 -51.7294 1.61568 448.873
2609 1 -37.6313 1.77509 441.204 -37.6313 1.77509 441.204
2606 1 -39.2248 1.73562 443.185 -39.2248 1.73562 443.185
2892 1 -40.8168 1.69581 445.167 -40.8168 1.69581 445.167
2890 1 -42.4072 1.65593 447.15 -42.4072 1.65593 447.15
3174 1 -43.9962 1.61626 449.133 -43.9962 1.61626 449.133
2618 1 -33.0067 3.239 442.039 -33.0067 3.239 442.039
2585 1 -50.7883 2.50373 441.102 -50.7883 2.50373 441.102
2583 1 -52.3805 2.46421 443.084 -52.3805 2.46421 443.084
2870 1 -53.9721 2.42506 445.066 -53.9721 2.42506 445.066
2867 1 -55.5633 2.38644 447.048 -55.5633 2.38644 447.048
2863 1 -57.1542 2.34851 449.028 -57.1542 2.34851 449.028
2599 1 -43.0529 2.5051 441.361 -43.0529 2.5051 441.361
2596 1 -44.6453 2.46535 443.343 -44.6453 2.46535 443.343
2883 1 -46.2364 2.42562 445.325 -46.2364 2.42562 445.325
2881 1 -47.8266 2.38615 447.308 -47.8266 2.38615 447.308
3164 1 -49.4158 2.34715 449.29 -49.4158 2.34715 449.29
2610 1 -36.913 2.46777 443.602 -36.913 2.46777 443.602
2896 1 -38.5052 2.42799 445.584 -38.5052 2.42799 445.584
2893 1 -40.0957 2.38802 447.567 -40.0957 2.38802 447.567
3178 1 -41.6845 2.34816 449.55 -41.6845 2.34816 449.55
2575 1 -57.0093 1.0024 442.252 -57.0093 1.0024 442.252
2591 1 -47.6786 1.04142 440.528 -47.6786 1.04142 440.528
2588 1 -49.271 1.00171 442.51 -49.271 1.00171 442.51
2876 1 -50.8625 0.962184 444.492 -50.8625 0.962184 444.492
2872 1 -52.4534 0.923039 446.474 -52.4534 0.923039 446.474
2869 1 -54.0437 0.884453 448.455 -54.0437 0.884453 448.455
2605 1 -39.9437 1.04312 440.787 -39.9437 1.04312 440.787
2602 1 -41.5369 1.00353 442.768 -41.5369 1.00353 442.768
2889 1 -43.1287 0.963722 444.751 -43.1287 0.963722 444.751
2886 1 -44.7192 0.923964 446.733 -44.7192 0.923964 446.733
3170 1 -46.3085 0.884514 448.716 -46.3085 0.884514 448.716
2899 1 -36.9895 0.926528 446.992 -36.9895 0.926528 446.992
3184 1 -38.5792 0.886471 448.975 -38.5792 0.886471 448.975
2580 1 -53.8984 3.96647 441.677 -53.8984 3.96647 441.677
2577 1 -55.4908 3.92734 443.659 -55.4908 3.92734 443.659
2864 1 -57.0828 3.88873 445.64 -57.0828 3.88873 445.64
2862 1 -57.8787 1.65593 446.631 -57.8787 1.65593 446.631
2594 1 -46.1619 3.96705 441.935 -46.1619 3.96705 441.935
2590 1 -47.7537 3.92733 443.917 -47.7537 3.92733 443.917
2878 1 -49.3445 3.88782 445.9 -49.3445 3.88782 445.9
2875 1 -50.9346 3.84873 447.882 -50.9346 3.84873 447.882
3159 1 -52.5241 3.81025 449.864 -52.5241 3.81025 449.864
2611 1 -36.8339 4.00834 440.214 -36.8339 4.00834 440.214
2608 1 -38.4283 3.96914 442.194 -38.4283 3.96914 442.194
2894 1 -40.021 3.92947 444.176 -40.021 3.92947 444.176
2891 1 -41.6122 3.88958 446.159 -41.6122 3.88958 446.159
2888 1 -43.2019 3.84978 448.142 -43.2019 3.84978 448.142
2904 1 -33.883 3.89254 446.418 -33.883 3.89254 446.418
2621 1 -31.41 3.27713 440.06 -31.41 3.27713 440.06
2617 1 -33.7231 2.5456 439.642 -33.7231 2.5456 439.642
2614 1 -35.319 2.50706 441.621 -35.319 2.50706 441.621
2908 1 -31.5723 0.197409 446.836 -31.5723 0.197409 446.836
2619 1 -32.2086 1.04446 441.05 -32.2086 1.04446 441.05
2906 1 -32.3683 2.39115 447.827 -32.3683 2.39115 447.827
2905 1 -33.0867 1.69868 445.428 -33.0867 1.69868 445.428
2620 1 -31.4924 1.73788 443.447 -31.4924 1.73788 443.447
3190 1 -35.4739 3.85248 448.401 -35.4739 3.85248 448.401
2902 1 -34.6787 1.65882 447.409 -34.6787 1.65882 447.409
2903 1 -34.6013 3.19995 444.02 -34.6013 3.19995 444.02
2615 1 -34.5213 0.312711 440.631 -34.5213 0.312711 440.631
2909 1 -30.7757 2.43095 445.845 -30.7757 2.43095 445.845
14 1 -51.4674 0.362018 399.16 -51.4674 4.78947 399.16
7 1 -55.9742 3.31195 398.44 -55.9742 3.31195 398.44
25 1 -43.6744 0.359717 399.347 -43.6744 4.78717 399.347
38 1 -35.8715 0.291049 399.563 -35.8715 4.7185 399.563
23 1 -45.2612 0.308322 401.313 -45.2612 4.73578 401.313
287 1 -48.4355 0.232556 405.247 -48.4355 4.66001 405.247
878 1 -39.3057 0.0723512 413.694 -39.3057 4.4998 413.694
579 1 -45.4618 0.120046 411.449 -45.4618 4.5475 411.449
585 1 -42.2737 0.188371 407.492 -42.2737 4.61582 407.492
290 1 -46.8495 0.269314 403.274 -46.8495 4.69677 403.274
11 1 -53.0072 0.300368 401.071 -53.0072 4.72782 401.071
595 1 -36.1136 0.139842 409.741 -36.1136 4.5673 409.741
1134 1 -57.9867 0.0205036 417.127 -57.9867 4.44796 417.127
283 1 -50.0254 0.198815 407.225 -50.0254 4.62627 407.225
582 1 -43.8677 0.154528 409.47 -43.8677 4.58198 409.47
276 1 -54.6036 0.284374 403.011 -54.6036 4.71183 403.011
569 1 -51.6163 0.165313 409.203 -51.6163 4.59277 409.203
847 1 -56.3934 0.0579361 415.146 -56.3934 4.48539 415.146
272 1 -56.1834 0.253205 404.982 -56.1834 4.68066 404.982
3 1 -57.7251 3.3143 400.21 -57.7251 3.3143 400.21
35 1 -37.4812 0.280189 401.549 -37.4812 4.70764 401.549
598 1 -34.5169 0.172442 407.765 -34.5169 4.59989 407.765
850 1 -54.8002 0.0943734 413.165 -54.8002 4.52183 413.165
304 1 -39.0831 0.254127 403.534 -39.0831 4.68158 403.534
301 1 -40.6794 0.221599 405.514 -40.6794 4.64905 405.514
269 1 -57.7681 0.216275 406.965 -57.7681 4.64373 406.965
314 1 -32.9193 0.204147 405.791 -32.9193 4.6316 405.791