ITEM: TIMESTEP
0
ITEM: NUMBER OF ATOMS
4630
ITEM: BOX BOUNDS xy xz yz pp pp pp
-6.1940988501800000e+01 1.0496002034999999e+02 0.0000000000000000e+00
0.0000000000000000e+00 4.4274527100805940e+00 0.0000000000000000e+00
3.8000000000000000e+02 5.0000000000000000e+02 0.0000000000000000e+00
ITEM: ATOMS id type x y z xu yu zu
27 1 -44.6118 2.37608 399.117 -44.6118 2.37608 399.117
36 1 -39.0905 1.6321 399.172 -39.0905 1.6321 399.172
31 1 -42.2349 3.06147 399.556 -42.2349 3.06147 399.556
22 1 -47.7571 3.81287 399.531 -47.7571 3.81287 399.531
20 1 -48.5991 1.59389 400.393 -48.5991 1.59389 400.393
40 1 -36.7164 2.31949 399.615 -36.7164 2.31949 399.615
34 1 -39.9114 3.83146 400.023 -39.9114 3.83146 400.023
17 1 -50.9274 0.838524 399.935 -50.9274 0.838524 399.935
9 1 -56.4051 1.52239 399.852 -56.4051 1.52239 399.852
43 1 -34.3948 3.09036 400.084 -34.3948 3.09036 400.084
12 1 -54.1135 2.34939 400.347 -54.1135 2.34939 400.347
5 1 -58.7738 0.872034 399.395 -58.7738 0.872034 399.395
29 1 -43.0814 0.833752 400.422 -43.0814 0.833752 400.422
853 1 -55.7998 2.88477 414.685 -55.7998 2.88477 414.685
873 1 -44.7828 1.40683 414.799 -44.7828 1.40683 414.799
865 1 -48.8085 0.651434 416.195 -48.8085 0.651434 416.195
1174 1 -36.3072 2.10434 417.765 -36.3072 2.10434 417.765
883 1 -39.2732 0.666809 414.857 -39.2732 0.666809 414.857
863 1 -50.2923 2.14657 414.742 -50.2923 2.14657 414.742
315 1 -34.609 1.54939 403.409 -34.609 1.54939 403.409
307 1 -39.4863 2.99895 405.751 -39.4863 2.99895 405.751
1150 1 -50.5026 0.626332 418.095 -50.5026 0.626332 418.095
855 1 -54.3164 1.38991 416.138 -54.3164 1.38991 416.138
310 1 -37.7901 3.02304 403.856 -37.7901 3.02304 403.856
871 1 -45.6303 3.60835 415.749 -45.6303 3.60835 415.749
16 1 -51.7675 3.03849 400.804 -51.7675 3.03849 400.804
309 1 -38.0013 1.50361 407.202 -38.0013 1.50361 407.202
1156 1 -47.325 3.58369 417.648 -47.325 3.58369 417.648
867 1 -47.9613 2.87756 415.245 -47.9613 2.87756 415.245
1159 1 -44.9943 4.31462 418.152 -44.9943 4.31462 418.152
1168 1 -39.4855 3.575 418.21 -39.4855 3.575 418.21
1170 1 -38.6378 1.37342 417.26 -38.6378 1.37342 417.26
594 1 -38.8492 3.70548 408.152 -38.8492 3.70548 408.152
37 1 -38.4237 2.31268 401.472 -38.4237 2.31268 401.472
851 1 -56.6465 0.658442 415.635 -56.6465 0.658442 415.635
857 1 -53.4697 3.61631 415.188 -53.4697 3.61631 415.188
592 1 -39.6969 1.47971 409.101 -39.6969 1.47971 409.101
849 1 -57.4933 2.85956 416.586 -57.4933 2.85956 416.586
877 1 -42.4518 2.13758 415.303 -42.4518 2.13758 415.303
1143 1 -55.1632 3.59097 417.089 -55.1632 3.59097 417.089
1140 1 -56.8566 3.56559 418.989 -56.8566 3.56559 418.989
845 1 -59.8235 2.12839 416.083 -59.8235 2.12839 416.083
875 1 -43.2994 4.33913 416.252 -43.2994 4.33913 416.252
886 1 -37.5778 0.691007 412.958 -37.5778 0.691007 412.958
891 1 -34.3988 3.64737 412.514 -34.3988 3.64737 412.514
39 1 -36.9464 0.816713 402.899 -36.9464 0.816713 402.899
1177 1 -34.8243 0.609473 419.219 -34.8243 0.609473 419.219
1167 1 -40.3331 1.34908 419.159 -40.3331 1.34908 419.159
8 1 -57.2726 3.78308 400.823 -57.2726 3.78308 400.823
869 1 -46.4777 1.38234 416.698 -46.4777 1.38234 416.698
1136 1 -59.1867 2.83426 418.487 -59.1867 2.83426 418.487
1162 1 -43.511 2.81953 419.605 -43.511 2.81953 419.605
15 1 -52.6227 0.829017 401.797 -52.6227 0.829017 401.797
280 1 -54.3186 0.806107 403.683 -54.3186 0.806107 403.683
277 1 -56.0205 0.793117 405.574 -56.0205 0.793117 405.574
273 1 -57.712 0.768025 407.474 -57.712 0.768025 407.474
560 1 -59.4039 0.742126 409.376 -59.4039 0.742126 409.376
557 1 -61.0972 0.716925 411.277 -61.0972 0.716925 411.277
26 1 -44.7831 0.830755 402.33 -44.7831 0.830755 402.33
294 1 -46.4817 0.809743 404.24 -46.4817 0.809743 404.24
291 1 -48.1766 0.782536 406.139 -48.1766 0.782536 406.139
576 1 -49.871 0.756797 408.038 -49.871 0.756797 408.038
573 1 -51.5661 0.733117 409.935 -51.5661 0.733117 409.935
570 1 -53.2599 0.708751 411.834 -53.2599 0.708751 411.834
854 1 -54.9531 0.683639 413.735 -54.9531 0.683639 413.735
305 1 -40.3332 0.773488 406.699 -40.3332 0.773488 406.699
589 1 -42.0285 0.749179 408.598 -42.0285 0.749179 408.598
586 1 -43.7237 0.724771 410.497 -43.7237 0.724771 410.497
872 1 -45.4189 0.700448 412.396 -45.4189 0.700448 412.396
599 1 -35.882 0.715052 411.06 -35.882 0.715052 411.06
1132 1 -61.5169 2.10311 417.984 -61.5169 2.10311 417.984
4 1 -59 3.79701 402.652 -59 3.79701 402.652
268 1 -60.6779 3.75931 404.566 -60.6779 3.75931 404.566
1152 1 -49.6556 2.85265 417.145 -49.6556 2.85265 417.145
19 1 -49.4574 3.78118 401.342 -49.4574 3.78118 401.342
286 1 -51.1436 3.75819 403.221 -51.1436 3.75819 403.221
282 1 -52.8355 3.73923 405.127 -52.8355 3.73923 405.127
279 1 -54.5338 3.72177 407.025 -54.5338 3.72177 407.025
565 1 -56.2273 3.6988 408.926 -56.2273 3.6988 408.926
563 1 -57.92 3.67379 410.828 -57.92 3.67379 410.828
846 1 -59.6135 3.64883 412.729 -59.6135 3.64883 412.729
32 1 -41.6064 3.78594 401.909 -41.6064 3.78594 401.909
300 1 -43.3035 3.76469 403.798 -43.3035 3.76469 403.798
297 1 -44.9981 3.74027 405.694 -44.9981 3.74027 405.694
293 1 -46.6923 3.71546 407.593 -46.6923 3.71546 407.593
578 1 -48.387 3.69054 409.491 -48.387 3.69054 409.491
575 1 -50.082 3.66625 411.389 -50.082 3.66625 411.389
860 1 -51.7761 3.64153 413.288 -51.7761 3.64153 413.288
591 1 -40.5447 3.68128 410.051 -40.5447 3.68128 410.051
588 1 -42.24 3.65699 411.95 -42.24 3.65699 411.95
874 1 -43.9353 3.6327 413.849 -43.9353 3.6327 413.849
10 1 -55.8018 2.29038 402.236 -55.8018 2.29038 402.236
274 1 -57.5101 2.2933 404.115 -57.5101 2.2933 404.115
271 1 -59.1961 2.26441 406.02 -59.1961 2.26441 406.02
558 1 -60.8875 2.23761 407.923 -60.8875 2.23761 407.923
24 1 -46.2894 2.32794 400.922 -46.2894 2.32794 400.922
21 1 -47.975 2.30293 402.79 -47.975 2.30293 402.79
288 1 -49.6611 2.27532 404.688 -49.6611 2.27532 404.688
285 1 -51.3543 2.24924 406.586 -51.3543 2.24924 406.586
571 1 -53.0501 2.22722 408.482 -53.0501 2.22722 408.482
568 1 -54.7436 2.2035 410.381 -54.7436 2.2035 410.381
852 1 -56.4366 2.17853 412.281 -56.4366 2.17853 412.281
848 1 -58.13 2.15351 414.182 -58.13 2.15351 414.182
306 1 -40.1235 2.29104 403.348 -40.1235 2.29104 403.348
302 1 -41.8183 2.26821 405.244 -41.8183 2.26821 405.244
299 1 -43.5128 2.24439 407.144 -43.5128 2.24439 407.144
583 1 -45.2076 2.22005 409.044 -45.2076 2.22005 409.044
581 1 -46.9028 2.1956 410.944 -46.9028 2.1956 410.944
866 1 -48.5979 2.17129 412.842 -48.5979 2.17129 412.842
880 1 -40.7565 2.16187 413.404 -40.7565 2.16187 413.404
312 1 -36.3055 1.52698 405.304 -36.3055 1.52698 405.304
2 1 -60.4992 0.882864 401.218 -60.4992 0.882864 401.218
13 1 -53.4629 3.02763 402.718 -53.4629 3.02763 402.718
278 1 -55.1689 3.01358 404.622 -55.1689 3.01358 404.622
275 1 -56.866 2.99484 406.521 -56.866 2.99484 406.521
562 1 -58.5573 2.96861 408.424 -58.5573 2.96861 408.424
559 1 -60.2504 2.9432 410.326 -60.2504 2.9432 410.326
1166 1 -41.1806 3.55057 420.109 -41.1806 3.55057 420.109
889 1 -35.2467 1.42169 413.463 -35.2467 1.42169 413.463
28 1 -43.9395 3.05552 401.415 -43.9395 3.05552 401.415
296 1 -45.6373 3.03397 403.293 -45.6373 3.03397 403.293
292 1 -47.3302 3.00995 405.19 -47.3302 3.00995 405.19
289 1 -49.0235 2.98339 407.089 -49.0235 2.98339 407.089
574 1 -50.7185 2.95878 408.987 -50.7185 2.95878 408.987
572 1 -52.4131 2.93487 410.885 -52.4131 2.93487 410.885
856 1 -54.1065 2.90998 412.785 -54.1065 2.90998 412.785
303 1 -41.1813 2.97487 407.648 -41.1813 2.97487 407.648
587 1 -42.8762 2.95063 409.547 -42.8762 2.95063 409.547
584 1 -44.5713 2.9263 411.447 -44.5713 2.9263 411.447
870 1 -46.2665 2.90202 413.346 -46.2665 2.90202 413.346
6 1 -58.1455 1.58868 401.708 -58.1455 1.58868 401.708
270 1 -59.8356 1.56231 403.609 -59.8356 1.56231 403.609
267 1 -61.5232 1.53164 405.518 -61.5232 1.53164 405.518
890 1 -34.6115 2.12842 415.867 -34.6115 2.12842 415.867
18 1 -50.2934 1.55739 402.287 -50.2934 1.55739 402.287
284 1 -51.9868 1.53679 404.183 -51.9868 1.53679 404.183
281 1 -53.6855 1.51766 406.079 -53.6855 1.51766 406.079
567 1 -55.3812 1.49738 407.976 -55.3812 1.49738 407.976
564 1 -57.0736 1.47262 409.878 -57.0736 1.47262 409.878
561 1 -58.7667 1.4476 411.779 -58.7667 1.4476 411.779
844 1 -60.4603 1.42259 413.68 -60.4603 1.42259 413.68
33 1 -40.7744 1.58415 400.973 -40.7744 1.58415 400.973
30 1 -42.4613 1.55834 402.839 -42.4613 1.55834 402.839
298 1 -44.151 1.53822 404.741 -44.151 1.53822 404.741
295 1 -45.8449 1.51426 406.643 -45.8449 1.51426 406.643
580 1 -47.5395 1.48909 408.542 -47.5395 1.48909 408.542
577 1 -49.2346 1.46458 410.44 -49.2346 1.46458 410.44
862 1 -50.9292 1.44023 412.339 -50.9292 1.44023 412.339
590 1 -41.3923 1.45545 411.001 -41.3923 1.45545 411.001
876 1 -43.0876 1.43113 412.9 -43.0876 1.43113 412.9
1163 1 -42.6636 0.618102 418.655 -42.6636 0.618102 418.655
1153 1 -49.0191 3.55866 419.548 -49.0191 3.55866 419.548
311 1 -37.1527 3.72954 406.254 -37.1527 3.72954 406.254
42 1 -35.2576 0.842804 401.034 -35.2576 0.842804 401.034
1135 1 -60.0334 0.607834 419.437 -60.0334 0.607834 419.437
1171 1 -38.0026 2.08009 419.664 -38.0026 2.08009 419.664
1139 1 -57.7033 1.33914 419.94 -57.7033 1.33914 419.94
601 1 -35.0341 2.94068 410.111 -35.0341 2.94068 410.111
313 1 -35.4541 3.75371 404.355 -35.4541 3.75371 404.355
858 1 -52.6229 1.41521 414.238 -52.6229 1.41521 414.238
868 1 -47.114 0.67612 414.295 -47.114 0.67612 414.295
1147 1 -52.8329 4.32244 417.592 -52.8329 4.32244 417.592
843 1 -61.307 3.62375 414.63 -61.307 3.62375 414.63
593 1 -39.0611 2.18612 411.505 -39.0611 2.18612 411.505
308 1 -38.6379 0.796842 404.799 -38.6379 0.796842 404.799
861 1 -51.1392 4.34775 415.692 -51.1392 4.34775 415.692
1158 1 -45.8416 2.08853 419.101 -45.8416 2.08853 419.101
884 1 -38.4255 2.89265 413.908 -38.4255 2.89265 413.908
881 1 -40.1209 2.8684 415.807 -40.1209 2.8684 415.807
885 1 -37.7901 3.59927 416.311 -37.7901 3.59927 416.311
859 1 -51.9861 2.12138 416.642 -51.9861 2.12138 416.642
596 1 -37.3656 2.2102 409.606 -37.3656 2.2102 409.606
879 1 -40.9686 0.642522 416.756 -40.9686 0.642522 416.756
1172 1 -37.1549 4.30596 418.714 -37.1549 4.30596 418.714
1154 1 -48.1721 1.35749 418.598 -48.1721 1.35749 418.598
887 1 -36.9424 1.39763 415.362 -36.9424 1.39763 415.362
597 1 -36.7299 2.91677 412.009 -36.7299 2.91677 412.009
1161 1 -44.1469 2.11318 417.202 -44.1469 2.11318 417.202
1138 1 -58.34 0.633199 417.536 -58.34 0.633199 417.536
1149 1 -51.3495 2.82741 419.045 -51.3495 2.82741 419.045
41 1 -36.0911 3.04403 401.969 -36.0911 3.04403 401.969
888 1 -36.0946 3.6234 414.412 -36.0946 3.6234 414.412
1165 1 -41.8161 2.84406 417.706 -41.8161 2.84406 417.706
1141 1 -56.0099 1.36456 418.039 -56.0099 1.36456 418.039
1145 1 -53.6797 2.09601 418.542 -53.6797 2.09601 418.542
600 1 -35.6698 2.23397 407.708 -35.6698 2.23397 407.708
1148 1 -52.1963 0.600992 419.995 -52.1963 0.600992 419.995
882 1 -39.9088 4.38773 412.454 -39.9088 4.38773 412.454
1157 1 -46.6887 4.2898 420.051 -46.6887 4.2898 420.051
1144 1 -54.5265 4.29702 419.492 -54.5265 4.29702 419.492
602 1 -34.1859 0.738835 409.162 -34.1859 0.738835 409.162
1131 1 -61.7266 0.582315 421.338 -61.7266 0.582315 421.338
1755 1 -34.6147 2.70579 428.328 -34.6147 2.70579 428.328
1460 1 -39.0623 2.76228 423.966 -39.0623 2.76228 423.966
2308 1 -48.5859 3.31648 437.772 -48.5859 3.31648 437.772
2316 1 -43.7185 1.87327 435.424 -43.7185 1.87327 435.424
2312 1 -46.2569 4.04846 438.275 -46.2569 4.04846 438.275
1464 1 -36.7322 3.49357 424.47 -36.7322 3.49357 424.47
1461 1 -38.2149 0.560852 423.016 -38.2149 0.560852 423.016
2039 1 -37.3675 3.36257 434.531 -37.3675 3.36257 434.531
2613 1 -39.2706 1.81708 439.785 -39.2706 1.81708 439.785
1467 1 -34.4022 4.22486 424.975 -34.4022 4.22486 424.975
2603 1 -44.774 2.55387 439.729 -44.774 2.55387 439.729
1443 1 -48.3828 4.26468 421.951 -48.3828 4.26468 421.951
1748 1 -38.4269 3.46892 426.369 -38.4269 3.46892 426.369
2023 1 -46.0476 1.14137 434.92 -46.0476 1.14137 434.92
2310 1 -47.1028 1.82186 439.225 -47.1028 1.82186 439.225
1151 1 -49.8661 1.33232 420.498 -49.8661 1.33232 420.498
2303 1 -51.761 0.357886 438.219 -51.761 0.357886 438.219
2299 1 -54.0903 4.0534 437.716 -54.0903 4.0534 437.716
2033 1 -40.5431 0.404238 434.977 -40.5431 0.404238 434.977
1433 1 -53.8898 0.575519 421.896 -53.8898 0.575519 421.896
1430 1 -55.5832 0.549933 423.796 -55.5832 0.549933 423.796
1426 1 -57.2763 0.524239 425.697 -57.2763 0.524239 425.697
1713 1 -58.9691 0.498447 427.598 -58.9691 0.498447 427.598
1710 1 -60.6618 0.472579 429.499 -60.6618 0.472579 429.499
2330 1 -35.2496 2.57471 438.389 -35.2496 2.57471 438.389
1160 1 -44.3583 0.593441 420.555 -44.3583 0.593441 420.555
1447 1 -46.0526 0.56849 422.455 -46.0526 0.56849 422.455
1444 1 -47.7465 0.543283 424.355 -47.7465 0.543283 424.355
1730 1 -49.4401 0.517872 426.255 -49.4401 0.517872 426.255
1727 1 -51.1333 0.492295 428.156 -51.1333 0.492295 428.156
1724 1 -52.8262 0.466584 430.057 -52.8262 0.466584 430.057
2008 1 -54.5188 0.440768 431.958 -54.5188 0.440768 431.958
2006 1 -56.2112 0.414883 433.859 -56.2112 0.414883 433.859
1458 1 -39.9096 0.536193 424.916 -39.9096 0.536193 424.916
1743 1 -41.6038 0.511273 426.815 -41.6038 0.511273 426.815
1740 1 -43.2977 0.486108 428.715 -43.2977 0.486108 428.715
2026 1 -44.9911 0.46073 430.616 -44.9911 0.46073 430.616
2022 1 -46.6841 0.435179 432.516 -46.6841 0.435179 432.516
2019 1 -48.3768 0.409495 434.417 -48.3768 0.409495 434.417
2309 1 -47.7399 1.11565 436.821 -47.7399 1.11565 436.821
1137 1 -58.55 3.54012 420.89 -58.55 3.54012 420.89
1421 1 -60.2431 3.51453 422.791 -60.2431 3.51453 422.791
1439 1 -50.7129 3.53338 421.448 -50.7129 3.53338 421.448
1435 1 -52.4065 3.50792 423.349 -52.4065 3.50792 423.349
1432 1 -54.0998 3.48232 425.249 -54.0998 3.48232 425.249
1719 1 -55.7929 3.45661 427.15 -55.7929 3.45661 427.15
1716 1 -57.4857 3.4308 429.051 -57.4857 3.4308 429.051
2001 1 -59.1782 3.40492 430.953 -59.1782 3.40492 430.953
1998 1 -60.8706 3.379 432.854 -60.8706 3.379 432.854
2323 1 -39.0606 3.33716 436.431 -39.0606 3.33716 436.431
1453 1 -42.8753 3.5259 422.008 -42.8753 3.5259 422.008
1450 1 -44.5695 3.50097 423.908 -44.5695 3.50097 423.908
1446 1 -46.2634 3.47578 425.808 -46.2634 3.47578 425.808
1732 1 -47.957 3.45038 427.709 -47.957 3.45038 427.709
1729 1 -49.6501 3.42482 429.609 -49.6501 3.42482 429.609
2014 1 -51.343 3.39912 431.51 -51.343 3.39912 431.51
2011 1 -53.0355 3.37331 433.411 -53.0355 3.37331 433.411
1745 1 -40.1212 3.44401 428.269 -40.1212 3.44401 428.269
1742 1 -41.815 3.41884 430.169 -41.815 3.41884 430.169
2028 1 -43.5083 3.39347 432.069 -43.5083 3.39347 432.069
2025 1 -45.2012 3.36792 433.97 -45.2012 3.36792 433.97
1427 1 -57.0665 2.04501 422.343 -57.0665 2.04501 422.343
1424 1 -58.7597 2.01936 424.244 -58.7597 2.01936 424.244
1711 1 -60.4526 1.9936 426.145 -60.4526 1.9936 426.145
2322 1 -39.9069 1.11066 437.381 -39.9069 1.11066 437.381
1750 1 -36.9444 1.97428 427.823 -36.9444 1.97428 427.823
1155 1 -47.5358 2.06355 421.001 -47.5358 2.06355 421.001
1441 1 -49.2297 2.03831 422.901 -49.2297 2.03831 422.901
1438 1 -50.9232 2.01288 424.802 -50.9232 2.01288 424.802
1725 1 -52.6165 1.98729 426.703 -52.6165 1.98729 426.703
1722 1 -54.3095 1.96157 428.603 -54.3095 1.96157 428.603
1718 1 -56.0022 1.93575 430.504 -56.0022 1.93575 430.504
2003 1 -57.6947 1.90986 432.406 -57.6947 1.90986 432.406
2000 1 -59.387 1.88394 434.307 -59.387 1.88394 434.307
1459 1 -39.6976 2.05567 421.563 -39.6976 2.05567 421.563
1455 1 -41.3923 2.031 423.462 -41.3923 2.031 423.462
1452 1 -43.0866 2.00608 425.362 -43.0866 2.00608 425.362
1737 1 -44.7805 1.9809 427.262 -44.7805 1.9809 427.262
1735 1 -46.474 1.95552 429.162 -46.474 1.95552 429.162
2020 1 -48.1671 1.92996 431.063 -48.1671 1.92996 431.063
2017 1 -49.8598 1.90427 432.963 -49.8598 1.90427 432.963
2034 1 -40.3324 1.9242 431.623 -40.3324 1.9242 431.623
2031 1 -42.0257 1.89882 433.523 -42.0257 1.89882 433.523
2029 1 -42.8721 4.09979 434.473 -42.8721 4.09979 434.473
1146 1 -53.0431 2.802 420.945 -53.0431 2.802 420.945
1431 1 -54.7365 2.77647 422.846 -54.7365 2.77647 422.846
1428 1 -56.4297 2.75083 424.747 -56.4297 2.75083 424.747
1715 1 -58.1227 2.72508 426.648 -58.1227 2.72508 426.648
1712 1 -59.8155 2.69925 428.549 -59.8155 2.69925 428.549
1708 1 -61.508 2.67335 430.45 -61.508 2.67335 430.45
1747 1 -38.6386 1.94937 429.723 -38.6386 1.94937 429.723
1449 1 -45.2055 2.79473 421.505 -45.2055 2.79473 421.505
1445 1 -46.8996 2.76964 423.405 -46.8996 2.76964 423.405
1442 1 -48.5933 2.74433 425.305 -48.5933 2.74433 425.305
1728 1 -50.2867 2.71883 427.205 -50.2867 2.71883 427.205
1726 1 -51.9798 2.69318 429.106 -51.9798 2.69318 429.106
2010 1 -53.6726 2.66741 431.007 -53.6726 2.66741 431.007
2007 1 -55.3651 2.64156 432.908 -55.3651 2.64156 432.908
1456 1 -40.7568 2.73749 425.865 -40.7568 2.73749 425.865
1741 1 -42.4508 2.71245 427.765 -42.4508 2.71245 427.765
1738 1 -44.1444 2.68717 429.665 -44.1444 2.68717 429.665
2024 1 -45.8377 2.6617 431.566 -45.8377 2.6617 431.566
2021 1 -47.5305 2.63608 433.467 -47.5305 2.63608 433.467
2035 1 -39.6965 2.63068 434.027 -39.6965 2.63068 434.027
1754 1 -35.2497 1.99892 425.924 -35.2497 1.99892 425.924
1423 1 -59.3966 1.31361 421.84 -59.3966 1.31361 421.84
1420 1 -61.0896 1.28796 423.742 -61.0896 1.28796 423.742
2044 1 -34.1917 1.89332 434.085 -34.1917 1.89332 434.085
1437 1 -51.5598 1.30694 422.398 -51.5598 1.30694 422.398
1434 1 -53.2532 1.28141 424.299 -53.2532 1.28141 424.299
1721 1 -54.9464 1.25575 426.2 -54.9464 1.25575 426.2
1717 1 -56.6393 1.22999 428.101 -56.6393 1.22999 428.101
1714 1 -58.332 1.20414 430.002 -58.332 1.20414 430.002
1999 1 -60.0245 1.17823 431.903 -60.0245 1.17823 431.903
1997 1 -61.7168 1.15231 433.805 -61.7168 1.15231 433.805
1164 1 -42.028 1.32454 421.058 -42.028 1.32454 421.058
1451 1 -43.7225 1.29974 422.958 -43.7225 1.29974 422.958
1448 1 -45.4165 1.27467 424.858 -45.4165 1.27467 424.858
1734 1 -47.1102 1.24938 426.758 -47.1102 1.24938 426.758
1731 1 -48.8036 1.22389 428.659 -48.8036 1.22389 428.659
2016 1 -50.4966 1.19826 430.56 -50.4966 1.19826 430.56
2012 1 -52.1893 1.1725 432.46 -52.1893 1.1725 432.46
2009 1 -53.8817 1.14665 434.362 -53.8817 1.14665 434.362
1746 1 -39.2741 1.24277 427.319 -39.2741 1.24277 427.319
1744 1 -40.9681 1.21773 429.219 -40.9681 1.21773 429.219
2030 1 -42.6617 1.19245 431.119 -42.6617 1.19245 431.119
2027 1 -44.3548 1.16699 433.019 -44.3548 1.16699 433.019
2325 1 -38.2141 1.13616 435.481 -38.2141 1.13616 435.481
1749 1 -37.7916 4.17558 428.773 -37.7916 4.17558 428.773
1425 1 -57.9131 4.24592 423.294 -57.9131 4.24592 423.294
1736 1 -45.6273 4.18196 428.212 -45.6273 4.18196 428.212
1142 1 -55.3732 2.07056 420.442 -55.3732 2.07056 420.442
1720 1 -55.1559 4.1624 429.554 -55.1559 4.1624 429.554
2005 1 -56.8485 4.13654 431.455 -56.8485 4.13654 431.455
2002 1 -58.5409 4.11063 433.356 -58.5409 4.11063 433.356
1169 1 -38.8501 4.28163 420.613 -38.8501 4.28163 420.613
1723 1 -53.463 4.18817 427.653 -53.463 4.18817 427.653
1440 1 -50.0765 4.23934 423.852 -50.0765 4.23934 423.852
1733 1 -47.3206 4.15649 430.112 -47.3206 4.15649 430.112
2018 1 -49.0135 4.13086 432.013 -49.0135 4.13086 432.013
2015 1 -50.7061 4.10511 433.914 -50.7061 4.10511 433.914
2036 1 -39.4856 4.15054 430.673 -39.4856 4.15054 430.673
2032 1 -41.1791 4.12526 432.573 -41.1791 4.12526 432.573
2326 1 -37.5782 1.84267 437.885 -37.5782 1.84267 437.885
1752 1 -36.0971 4.20036 426.874 -36.0971 4.20036 426.874
1457 1 -40.545 4.25709 422.512 -40.545 4.25709 422.512
2043 1 -34.8269 1.18652 431.681 -34.8269 1.18652 431.681
2286 1 -61.0791 1.85803 436.208 -61.0791 1.85803 436.208
2319 1 -41.5993 1.08503 439.282 -41.5993 1.08503 439.282
1436 1 -51.7699 4.21383 425.752 -51.7699 4.21383 425.752
1422 1 -59.6062 4.22022 425.195 -59.6062 4.22022 425.195
1173 1 -36.5198 0.585266 421.118 -36.5198 0.585266 421.118
2293 1 -57.2657 1.09485 438.164 -57.2657 1.09485 438.164
2289 1 -59.5953 0.363059 437.661 -59.5953 0.363059 437.661
2295 1 -55.782 4.02752 439.617 -55.782 4.02752 439.617
1465 1 -35.8847 1.29207 423.521 -35.8847 1.29207 423.521
2315 1 -43.928 0.353009 438.778 -43.928 0.353009 438.778
2331 1 -35.0385 4.09447 435.035 -35.0385 4.09447 435.035
2297 1 -54.9362 1.82674 438.667 -54.9362 1.82674 438.667
2324 1 -38.4245 4.04362 438.835 -38.4245 4.04362 438.835
2306 1 -49.4319 1.08986 438.722 -49.4319 1.08986 438.722
2285 1 -61.2871 0.337201 439.563 -61.2871 0.337201 439.563
1462 1 -37.5796 1.26755 425.42 -37.5796 1.26755 425.42
1751 1 -36.3092 2.68101 430.227 -36.3092 2.68101 430.227
2329 1 -35.8852 1.86811 435.985 -35.8852 1.86811 435.985
2042 1 -35.6739 3.38775 432.631 -35.6739 3.38775 432.631
2041 1 -36.5208 1.16146 433.581 -36.5208 1.16146 433.581
2593 1 -50.2777 3.29068 439.673 -50.2777 3.29068 439.673
2328 1 -36.0959 0.348225 439.339 -36.0959 0.348225 439.339
2301 1 -52.6069 2.55869 439.17 -52.6069 2.55869 439.17
1466 1 -35.0371 3.51797 422.572 -35.0371 3.51797 422.572
2298 1 -54.7278 3.34743 435.312 -54.7278 3.34743 435.312
2321 1 -40.7532 3.31159 438.331 -40.7532 3.31159 438.331
2313 1 -45.4109 1.8476 437.324 -45.4109 1.8476 437.324
2294 1 -56.4198 3.32153 437.213 -56.4198 3.32153 437.213
2304 1 -50.9151 2.58453 437.269 -50.9151 2.58453 437.269
2300 1 -53.2443 1.85262 436.766 -53.2443 1.85262 436.766
2290 1 -58.7494 2.58974 436.711 -58.7494 2.58974 436.711
2318 1 -42.2358 0.378681 436.877 -42.2358 0.378681 436.877
2327 1 -36.7318 4.06914 436.935 -36.7318 4.06914 436.935
2004 1 -57.0573 2.61565 434.809 -57.0573 2.61565 434.809
2013 1 -51.5522 1.87847 434.864 -51.5522 1.87847 434.864
2288 1 -60.2331 4.08471 435.258 -60.2331 4.08471 435.258
2037 1 -38.8499 0.429628 433.077 -38.8499 0.429628 433.077
1739 1 -43.9336 4.20724 426.312 -43.9336 4.20724 426.312
1753 1 -35.462 0.47971 429.277 -35.462 0.47971 429.277
2307 1 -49.2229 2.61034 435.367 -49.2229 2.61034 435.367
2314 1 -44.5647 4.07418 436.374 -44.5647 4.07418 436.374
2040 1 -37.1562 0.454799 431.177 -37.1562 0.454799 431.177
2320 1 -41.3895 2.6052 435.927 -41.3895 2.6052 435.927
2292 1 -57.9034 0.388967 435.76 -57.9034 0.388967 435.76
2311 1 -46.8938 3.34225 435.871 -46.8938 3.34225 435.871
2302 1 -52.3983 4.07928 435.815 -52.3983 4.07928 435.815
2296 1 -55.5738 1.12076 436.263 -55.5738 1.12076 436.263
1463 1 -37.3674 2.78681 422.067 -37.3674 2.78681 422.067
2287 1 -60.4412 2.56385 438.612 -60.4412 2.56385 438.612
2291 1 -58.1115 3.29564 439.115 -58.1115 3.29564 439.115
2317 1 -43.0819 2.57958 437.828 -43.0819 2.57958 437.828
2038 1 -38.0031 2.65597 432.127 -38.0031 2.65597 432.127
2305 1 -50.069 0.383718 436.318 -50.069 0.383718 436.318
2332 1 -34.4031 0.373698 437.439 -34.4031 0.373698 437.439
1709 1 -61.299 4.19441 427.096 -61.299 4.19441 427.096
1468 1 -34.1894 1.31635 421.622 -34.1894 1.31635 421.622
1454 1 -42.2395 4.2323 424.412 -42.2395 4.2323 424.412
1429 1 -56.2199 4.27152 421.393 -56.2199 4.27152 421.393
1133 1 -60.88 2.80882 420.387 -60.88 2.80882 420.387
1175 1 -35.6721 2.81112 420.168 -35.6721 2.81112 420.168
2616 1 -37.1516 1.02899 443.644 -37.1516 1.02899 443.644
2901 1 -38.8429 1.00325 445.545 -38.8429 1.00325 445.545
2907 1 -35.6692 3.96197 445.099 -35.6692 3.96197 445.099
3194 1 -36.7229 0.215066 449.405 -36.7229 0.215066 449.405
2587 1 -53.4527 0.332037 440.12 -53.4527 0.332037 440.12
2597 1 -47.9487 4.0227 440.176 -47.9487 4.0227 440.176
2584 1 -55.1441 0.306208 442.022 -55.1441 0.306208 442.022
2581 1 -56.8353 0.280439 443.923 -56.8353 0.280439 443.923
2868 1 -58.5264 0.254768 445.824 -58.5264 0.254768 445.824
2865 1 -60.2173 0.229233 447.725 -60.2173 0.229233 447.725
2601 1 -45.6198 0.327275 440.679 -45.6198 0.327275 440.679
2598 1 -47.3113 0.301524 442.58 -47.3113 0.301524 442.58
2885 1 -49.0024 0.2758 444.482 -49.0024 0.2758 444.482
2882 1 -50.6933 0.250145 446.383 -50.6933 0.250145 446.383
2879 1 -52.3838 0.224606 448.284 -52.3838 0.224606 448.284
2612 1 -39.4799 0.296887 443.14 -39.4799 0.296887 443.14
2898 1 -41.1712 0.271159 445.042 -41.1712 0.271159 445.042
2895 1 -42.862 0.245461 446.943 -42.862 0.245461 446.943
3180 1 -44.5525 0.219829 448.844 -44.5525 0.219829 448.844
2576 1 -59.8032 3.2698 441.016 -59.8032 3.2698 441.016
2574 1 -61.4947 3.24405 442.917 -61.4947 3.24405 442.917
2589 1 -51.9692 3.26487 441.574 -51.9692 3.26487 441.574
2586 1 -53.6604 3.2391 443.475 -53.6604 3.2391 443.475
2874 1 -55.3514 3.21339 445.377 -55.3514 3.21339 445.377
2871 1 -57.0423 3.1878 447.278 -57.0423 3.1878 447.278
3155 1 -58.7329 3.16235 449.179 -58.7329 3.16235 449.179
2607 1 -42.4452 3.28591 440.232 -42.4452 3.28591 440.232
2604 1 -44.1369 3.26018 442.133 -44.1369 3.26018 442.133
2600 1 -45.8282 3.23445 444.034 -45.8282 3.23445 444.034
2887 1 -47.5191 3.20876 445.936 -47.5191 3.20876 445.936
2884 1 -49.2097 3.18315 447.837 -49.2097 3.18315 447.837
3168 1 -50.9001 3.15767 449.739 -50.9001 3.15767 449.739
2900 1 -39.6884 3.20411 446.496 -39.6884 3.20411 446.496
2897 1 -41.379 3.17844 448.397 -41.379 3.17844 448.397
2582 1 -56.6278 1.80087 440.568 -56.6278 1.80087 440.568
2579 1 -58.3192 1.77505 442.469 -58.3192 1.77505 442.469
2866 1 -60.0105 1.74933 444.371 -60.0105 1.74933 444.371
2578 1 -58.9574 1.06898 440.065 -58.9574 1.06898 440.065
2595 1 -48.7945 1.79608 441.127 -48.7945 1.79608 441.127
2592 1 -50.4858 1.77032 443.028 -50.4858 1.77032 443.028
2880 1 -52.1768 1.7446 444.929 -52.1768 1.7446 444.929
2877 1 -53.8676 1.71898 446.83 -53.8676 1.71898 446.83
2873 1 -55.5582 1.6935 448.732 -55.5582 1.6935 448.732
2609 1 -40.9625 1.79139 441.686 -40.9625 1.79139 441.686
2606 1 -42.654 1.76566 443.587 -42.654 1.76566 443.587
2892 1 -44.3451 1.73994 445.489 -44.3451 1.73994 445.489
2890 1 -46.0358 1.71428 447.39 -46.0358 1.71428 447.39
3174 1 -47.7262 1.6887 449.291 -47.7262 1.6887 449.291
2618 1 -36.3058 3.25559 442.694 -36.3058 3.25559 442.694
2585 1 -54.2984 2.53284 441.071 -54.2984 2.53284 441.071
2583 1 -55.9897 2.50704 442.972 -55.9897 2.50704 442.972
2870 1 -57.6808 2.48131 444.873 -57.6808 2.48131 444.873
2867 1 -59.3718 2.45571 446.775 -59.3718 2.45571 446.775
2863 1 -61.0627 2.43026 448.675 -61.0627 2.43026 448.675
2599 1 -46.4656 2.52812 441.63 -46.4656 2.52812 441.63
2596 1 -48.1569 2.50238 443.531 -48.1569 2.50238 443.531
2883 1 -49.8479 2.47669 445.432 -49.8479 2.47669 445.432
2881 1 -51.5386 2.45108 447.334 -51.5386 2.45108 447.334
3164 1 -53.229 2.42562 449.235 -53.229 2.42562 449.235
2610 1 -40.3256 2.49775 444.091 -40.3256 2.49775 444.091
2896 1 -42.0167 2.47203 445.992 -42.0167 2.47203 445.992
2893 1 -43.7073 2.44636 447.893 -43.7073 2.44636 447.893
3178 1 -45.3976 2.42077 449.795 -45.3976 2.42077 449.795
2575 1 -60.6489 1.04318 441.967 -60.6489 1.04318 441.967
2591 1 -51.1235 1.06405 440.623 -51.1235 1.06405 440.623
2588 1 -52.8149 1.03825 442.525 -52.8149 1.03825 442.525
2876 1 -54.506 1.01251 444.426 -54.506 1.01251 444.426
2872 1 -56.1969 0.986856 446.327 -56.1969 0.986856 446.327
2869 1 -57.8876 0.961331 448.228 -57.8876 0.961331 448.228
2605 1 -43.2911 1.05932 441.183 -43.2911 1.05932 441.183
2602 1 -44.9826 1.03359 443.084 -44.9826 1.03359 443.084
2889 1 -46.6737 1.00787 444.985 -46.6737 1.00787 444.985
2886 1 -48.3644 0.982212 446.886 -48.3644 0.982212 446.886
3170 1 -50.0549 0.956659 448.788 -50.0549 0.956659 448.788
2899 1 -40.5338 0.97754 447.446 -40.5338 0.97754 447.446
3184 1 -42.2242 0.951905 449.348 -42.2242 0.951905 449.348
2580 1 -57.4735 4.00168 441.519 -57.4735 4.00168 441.519
2577 1 -59.1649 3.97591 443.42 -59.1649 3.97591 443.42
2864 1 -60.8561 3.95025 445.321 -60.8561 3.95025 445.321
2862 1 -61.7017 1.72375 446.272 -61.7017 1.72375 446.272
2594 1 -49.6402 3.99692 442.077 -49.6402 3.99692 442.077
2590 1 -51.3314 3.97118 443.978 -51.3314 3.97118 443.978
2878 1 -53.0223 3.94551 445.88 -53.0223 3.94551 445.88
2875 1 -54.7129 3.91995 447.781 -54.7129 3.91995 447.781
3159 1 -56.4034 3.89455 449.682 -56.4034 3.89455 449.682
2611 1 -40.1166 4.01797 440.736 -40.1166 4.01797 440.736
2608 1 -41.8083 3.99225 442.637 -41.8083 3.99225 442.637
2894 1 -43.4996 3.96652 444.538 -43.4996 3.96652 444.538
2891 1 -45.1905 3.94083 446.439 -45.1905 3.94083 446.439
2888 1 -46.881 3.9152 448.341 -46.881 3.9152 448.341
2904 1 -37.3603 3.93619 447 -37.3603 3.93619 447
2621 1 -34.6137 3.28126 440.793 -34.6137 3.28126 440.793
2617 1 -36.9421 2.54915 440.289 -36.9421 2.54915 440.289
2614 1 -38.6341 2.52347 442.19 -38.6341 2.52347 442.19
2908 1 -35.0324 0.240839 447.504 -35.0324 0.240839 447.504
2619 1 -35.4598 1.05471 441.744 -35.4598 1.05471 441.744
2906 1 -35.8777 2.44167 448.454 -35.8777 2.44167 448.454
2905 1 -36.5148 1.73535 446.049 -36.5148 1.73535 446.049
2620 1 -34.8235 1.76113 444.148 -34.8235 1.76113 444.148
3190 1 -39.0509 3.91049 448.901 -39.0509 3.91049 448.901
2902 1 -38.2057 1.7096 447.95 -38.2057 1.7096 447.95
2903 1 -37.9973 3.22985 444.595 -37.9973 3.22985 444.595
2615 1 -37.7882 0.322597 441.24 -37.7882 0.322597 441.24
2909 1 -34.1869 2.46748 446.553 -34.1869 2.46748 446.553
14 1 -53.3021 0.150418 399.494 -53.3021 4.57787 399.494
7 1 -57.8614 3.09109 398.596 -57.8614 3.09109 398.596
25 1 -45.4341 0.147536 399.97 -45.4341 4.57499 399.97
38 1 -37.5621 0.09168 400.48 -37.5621 4.51913 400.48
23 1 -47.1262 0.104614 401.86 -47.1262 4.53207 401.86
287 1 -50.5077 0.0468078 405.634 -50.5077 4.47426 405.634
878 1 -41.6042 4.36345 414.353 -41.6042 4.36345 414.353
579 1 -47.7504 4.39721 411.893 -47.7504 4.39721 411.893
585 1 -44.3601 0.0186278 408.095 -44.3601 4.44608 408.095
290 1 -48.818 0.0736645 403.738 -48.818 4.50112 403.738
11 1 -54.9595 0.0918425 401.316 -54.9595 4.5193 401.316
595 1 -38.2134 4.41194 410.555 -38.2134 4.41194 410.555
1134 1 -60.6702 4.3295 417.033 -60.6702 4.3295 417.033
283 1 -52.2024 0.0241338 407.532 -52.2024 4.45159 407.532
582 1 -46.0552 4.42156 409.994 -46.0552 4.42156 409.994
276 1 -56.6636 0.0856415 403.184 -56.6636 4.51309 403.184
569 1 -53.897 4.42928 409.43 -53.897 4.42928 409.43
847 1 -58.9767 4.35469 415.133 -58.9767 4.35469 415.133
556 1 -61.7342 4.4387 408.873 -61.7342 4.4387 408.873
272 1 -58.3545 0.0656624 405.069 -58.3545 4.49312 405.069
3 1 -59.6806 3.09579 400.291 -59.6806 3.09579 400.291
35 1 -39.2671 0.0887991 402.386 -39.2671 4.51625 402.386
598 1 -36.5176 4.43595 408.657 -36.5176 4.43595 408.657