ITEM: TIMESTEP
0
ITEM: NUMBER OF ATOMS
4630
ITEM: BOX BOUNDS xy xz yz pp pp pp
-5.5940988501800000e+01 9.8960020349999994e+01 0.0000000000000000e+00
0.0000000000000000e+00 4.4274527100805940e+00 0.0000000000000000e+00
3.8000000000000000e+02 5.0000000000000000e+02 0.0000000000000000e+00
ITEM: ATOMS id type x y z xu yu zu
27 1 -42.0019 2.63673 398.018 -42.0019 2.63673 398.018
36 1 -36.5568 1.88914 397.652 -36.5568 1.88914 397.652
31 1 -39.6078 3.31212 398.273 -39.6078 3.31212 398.273
22 1 -45.0647 4.06594 398.674 -45.0647 4.06594 398.674
20 1 -45.8068 1.84984 399.608 -45.8068 1.84984 399.608
40 1 -34.1652 2.56761 397.913 -34.1652 2.56761 397.913
34 1 -37.283 4.08984 398.574 -37.283 4.08984 398.574
17 1 -48.1349 1.08885 399.317 -48.1349 1.08885 399.317
9 1 -53.5232 1.76672 399.655 -53.5232 1.76672 399.655
43 1 -31.8417 3.34632 398.218 -31.8417 3.34632 398.218
12 1 -51.2356 2.61096 399.988 -51.2356 2.61096 399.988
29 1 -40.3725 1.08632 399.207 -40.3725 1.08632 399.207
853 1 -51.7339 3.05104 414.545 -51.7339 3.05104 414.545
873 1 -40.9026 1.58039 413.798 -40.9026 1.58039 413.798
865 1 -44.7506 0.812837 415.516 -44.7506 0.812837 415.516
1174 1 -32.3379 2.26209 416.127 -32.3379 2.26209 416.127
883 1 -35.4805 0.842231 413.431 -35.4805 0.842231 413.431
863 1 -46.3208 2.31716 414.17 -46.3208 2.31716 414.17
315 1 -31.7885 1.78676 401.571 -31.7885 1.78676 401.571
307 1 -36.4073 3.22755 404.293 -36.4073 3.22755 404.293
1150 1 -46.269 0.77274 417.559 -46.269 0.77274 417.559
855 1 -50.1652 1.54693 415.891 -50.1652 1.54693 415.891
310 1 -34.8884 3.26016 402.26 -34.8884 3.26016 402.26
871 1 -41.6619 3.775 414.819 -41.6619 3.775 414.819
16 1 -48.8861 3.29148 400.256 -48.8861 3.29148 400.256
309 1 -34.83 1.72406 405.639 -34.83 1.72406 405.639
1156 1 -43.1809 3.73601 416.861 -43.1809 3.73601 416.861
867 1 -43.9917 3.04621 414.494 -43.9917 3.04621 414.494
1159 1 -40.8515 0.0377606 417.186 -40.8515 4.46521 417.186
1168 1 -35.4304 3.72857 416.818 -35.4304 3.72857 416.818
1170 1 -34.6697 1.53359 415.798 -34.6697 1.53359 415.798
594 1 -35.5893 3.92101 406.658 -35.5893 3.92101 406.658
37 1 -35.7013 2.55747 399.907 -35.7013 2.55747 399.907
851 1 -52.4917 0.816759 415.568 -52.4917 0.816759 415.568
857 1 -49.407 3.78111 414.869 -49.407 3.78111 414.869
592 1 -36.3484 1.68999 407.677 -36.3484 1.68999 407.677
849 1 -53.2499 3.00966 416.59 -53.2499 3.00966 416.59
877 1 -38.5719 2.30893 414.124 -38.5719 2.30893 414.124
1143 1 -50.9237 3.73998 416.913 -50.9237 3.73998 416.913
1140 1 -52.4414 3.69791 418.958 -52.4414 3.69791 418.958
845 1 -55.5754 2.27955 416.268 -55.5754 2.27955 416.268
875 1 -39.3316 0.07628 415.144 -39.3316 4.50373 415.144
886 1 -33.9604 0.878609 411.393 -33.9604 0.878609 411.393
891 1 -30.8665 3.83787 410.704 -30.8665 3.83787 410.704
39 1 -34.1337 1.05937 401.237 -34.1337 1.05937 401.237
1177 1 -30.7674 0.758363 417.475 -30.7674 0.758363 417.475
1167 1 -36.1913 1.49591 417.838 -36.1913 1.49591 417.838
8 1 -54.3037 4.0332 400.703 -54.3037 4.0332 400.703
869 1 -42.4213 1.54191 415.84 -42.4213 1.54191 415.84
1136 1 -54.767 2.96716 418.636 -54.767 2.96716 418.636
1162 1 -39.2822 2.96124 418.532 -39.2822 2.96124 418.532
15 1 -49.649 1.07571 401.32 -49.649 1.07571 401.32
280 1 -51.1578 1.04583 403.356 -51.1578 1.04583 403.356
277 1 -52.6707 1.02126 405.394 -52.6707 1.02126 405.394
273 1 -54.1765 0.983424 407.44 -54.1765 0.983424 407.44
560 1 -55.6863 0.944929 409.486 -55.6863 0.944929 409.486
26 1 -41.895 1.07568 401.258 -41.895 1.07568 401.258
294 1 -43.4113 1.04728 403.311 -43.4113 1.04728 403.311
291 1 -44.9244 1.01128 405.353 -44.9244 1.01128 405.353
576 1 -46.4364 0.973742 407.394 -46.4364 0.973742 407.394
573 1 -47.9491 0.936358 409.436 -47.9491 0.936358 409.436
570 1 -49.4621 0.897564 411.479 -49.4621 0.897564 411.479
854 1 -50.9763 0.857611 413.523 -50.9763 0.857611 413.523
305 1 -37.1654 0.997212 405.311 -37.1654 0.997212 405.311
589 1 -38.6821 0.962446 407.35 -38.6821 0.962446 407.35
586 1 -40.1987 0.926588 409.39 -40.1987 0.926588 409.39
872 1 -41.7155 0.889729 411.431 -41.7155 0.889729 411.431
599 1 -32.4401 0.913971 409.355 -32.4401 0.913971 409.355
4 1 -55.832 4.0424 402.687 -55.832 4.0424 402.687
1152 1 -45.5097 3.00664 416.537 -45.5097 3.00664 416.537
19 1 -46.5735 4.0357 400.635 -46.5735 4.0357 400.635
286 1 -48.0786 4.00226 402.647 -48.0786 4.00226 402.647
282 1 -49.5832 3.97126 404.694 -49.5832 3.97126 404.694
279 1 -51.0946 3.94125 406.738 -51.0946 3.94125 406.738
565 1 -52.604 3.90489 408.785 -52.604 3.90489 408.785
563 1 -54.1155 3.86637 410.831 -54.1155 3.86637 410.831
846 1 -55.6287 3.8265 412.877 -55.6287 3.8265 412.877
32 1 -38.8044 4.03599 400.593 -38.8044 4.03599 400.593
300 1 -40.3213 4.00449 402.622 -40.3213 4.00449 402.622
297 1 -41.8349 3.97028 404.659 -41.8349 3.97028 404.659
293 1 -43.3484 3.93503 406.699 -43.3484 3.93503 406.699
578 1 -44.8621 3.8982 408.74 -44.8621 3.8982 408.74
575 1 -46.3765 3.86041 410.782 -46.3765 3.86041 410.782
860 1 -47.8913 3.82132 412.825 -47.8913 3.82132 412.825
591 1 -37.1075 3.88608 408.697 -37.1075 3.88608 408.697
588 1 -38.6253 3.85002 410.737 -38.6253 3.85002 410.737
874 1 -40.1434 3.81299 412.778 -40.1434 3.81299 412.778
10 1 -52.7376 2.54158 402.016 -52.7376 2.54158 402.016
274 1 -54.2515 2.53158 404.044 -54.2515 2.53158 404.044
271 1 -55.7494 2.48987 406.096 -55.7494 2.48987 406.096
24 1 -43.4937 2.58859 399.969 -43.4937 2.58859 399.969
21 1 -44.9995 2.55034 401.973 -44.9995 2.55034 401.973
288 1 -46.5026 2.51321 404.008 -46.5026 2.51321 404.008
285 1 -48.0107 2.47472 406.048 -48.0107 2.47472 406.048
571 1 -49.5218 2.43893 408.089 -49.5218 2.43893 408.089
568 1 -51.033 2.401 410.132 -51.033 2.401 410.132
852 1 -52.5457 2.36166 412.177 -52.5457 2.36166 412.177
848 1 -54.06 2.3213 414.222 -54.06 2.3213 414.222
306 1 -37.2257 2.53089 401.928 -37.2257 2.53089 401.928
302 1 -38.7428 2.49989 403.962 -38.7428 2.49989 403.962
299 1 -40.2577 2.46594 406.002 -40.2577 2.46594 406.002
583 1 -41.7729 2.43064 408.044 -41.7729 2.43064 408.044
581 1 -43.2884 2.39399 410.086 -43.2884 2.39399 410.086
866 1 -44.8044 2.35621 412.128 -44.8044 2.35621 412.128
880 1 -37.0526 2.34611 412.084 -37.0526 2.34611 412.084
312 1 -33.3106 1.75655 403.602 -33.3106 1.75655 403.602
13 1 -50.3969 3.27054 402.317 -50.3969 3.27054 402.317
278 1 -51.9143 3.24815 404.367 -51.9143 3.24815 404.367
275 1 -53.4228 3.21648 406.414 -53.4228 3.21648 406.414
562 1 -54.9307 3.17787 408.463 -54.9307 3.17787 408.463
1166 1 -36.9522 3.6905 418.858 -36.9522 3.6905 418.858
889 1 -31.6272 1.6065 411.722 -31.6272 1.6065 411.722
28 1 -41.1394 3.30404 400.269 -41.1394 3.30404 400.269
296 1 -42.657 3.2761 402.294 -42.657 3.2761 402.294
292 1 -44.169 3.24335 404.333 -44.169 3.24335 404.333
289 1 -45.6802 3.20643 406.374 -45.6802 3.20643 406.374
574 1 -47.1926 3.16898 408.415 -47.1926 3.16898 408.415
572 1 -48.7055 3.13093 410.457 -48.7055 3.13093 410.457
856 1 -50.219 3.09144 412.501 -50.219 3.09144 412.501
303 1 -37.9241 3.19357 406.33 -37.9241 3.19357 406.33
587 1 -39.4405 3.15831 408.37 -39.4405 3.15831 408.37
584 1 -40.9571 3.12199 410.411 -40.9571 3.12199 410.411
870 1 -42.4741 3.08464 412.452 -42.4741 3.08464 412.452
6 1 -55.0782 1.83982 401.661 -55.0782 1.83982 401.661
890 1 -30.8157 2.29862 414.089 -30.8157 2.29862 414.089
18 1 -47.3209 1.80613 401.638 -47.3209 1.80613 401.638
284 1 -48.8276 1.77429 403.677 -48.8276 1.77429 403.677
281 1 -50.3392 1.74371 405.719 -50.3392 1.74371 405.719
567 1 -51.8493 1.7101 407.762 -51.8493 1.7101 407.762
564 1 -53.3595 1.67205 409.808 -53.3595 1.67205 409.808
561 1 -54.872 1.63295 411.854 -54.872 1.63295 411.854
33 1 -38.058 1.83944 399.599 -38.058 1.83944 399.599
30 1 -39.5705 1.80388 401.596 -39.5705 1.80388 401.596
298 1 -41.0788 1.77306 403.636 -41.0788 1.77306 403.636
295 1 -42.5916 1.73912 405.678 -42.5916 1.73912 405.678
580 1 -44.1051 1.70296 407.719 -44.1051 1.70296 407.719
577 1 -45.6193 1.66567 409.761 -45.6193 1.66567 409.761
862 1 -47.1338 1.62729 411.803 -47.1338 1.62729 411.803
590 1 -37.8663 1.65447 409.717 -37.8663 1.65447 409.717
876 1 -39.3843 1.6179 411.757 -39.3843 1.6179 411.757
1163 1 -38.5216 0.76688 417.511 -38.5216 0.76688 417.511
1153 1 -44.7005 3.69601 418.904 -44.7005 3.69601 418.904
311 1 -34.0697 3.95454 404.621 -34.0697 3.95454 404.621
42 1 -32.6163 1.09579 399.243 -32.6163 1.09579 399.243
1135 1 -55.5259 0.731792 419.658 -55.5259 0.731792 419.658
1171 1 -33.8604 2.2248 418.165 -33.8604 2.2248 418.165
1139 1 -53.2005 1.46279 419.98 -53.2005 1.46279 419.98
601 1 -31.6798 3.14493 408.337 -31.6798 3.14493 408.337
313 1 -32.5472 3.98706 402.584 -32.5472 3.98706 402.584
858 1 -48.649 1.5876 413.847 -48.649 1.5876 413.847
868 1 -43.2328 0.851849 413.473 -43.2328 0.851849 413.473
1147 1 -48.5967 0.0427845 417.236 -48.5967 4.47024 417.236
593 1 -35.5336 2.38236 410.045 -35.5336 2.38236 410.045
308 1 -35.648 1.02973 403.272 -35.648 1.02973 403.272
861 1 -47.0792 0.0834694 415.192 -47.0792 4.51092 415.192
1158 1 -41.6117 2.23188 418.207 -41.6117 2.23188 418.207
884 1 -34.7204 3.07426 412.412 -34.7204 3.07426 412.412
881 1 -36.2407 3.03743 414.451 -36.2407 3.03743 414.451
885 1 -33.909 3.76586 414.779 -33.909 3.76586 414.779
859 1 -47.8379 2.27697 416.214 -47.8379 2.27697 416.214
596 1 -34.0145 2.41751 408.007 -34.0145 2.41751 408.007
879 1 -37.0009 0.804973 415.471 -37.0009 0.804973 415.471
1172 1 -33.0991 0.0298102 417.146 -33.0991 4.45726 417.146
1154 1 -43.9406 1.5024 417.882 -43.9406 1.5024 417.882
887 1 -33.1484 1.57048 413.76 -33.1484 1.57048 413.76
597 1 -33.2003 3.11015 410.374 -33.2003 3.11015 410.374
1161 1 -40.0915 2.27086 416.165 -40.0915 2.27086 416.165
1138 1 -54.0083 0.774819 417.613 -54.0083 0.774819 417.613
1149 1 -47.0285 2.96605 418.581 -47.0285 2.96605 418.581
41 1 -33.366 3.29118 400.236 -33.366 3.29118 400.236
888 1 -32.3878 3.80233 412.741 -32.3878 3.80233 412.741
1165 1 -37.7612 2.99976 416.491 -37.7612 2.99976 416.491
1141 1 -51.6824 1.50534 417.935 -51.6824 1.50534 417.935
1145 1 -49.3558 2.23582 418.258 -49.3558 2.23582 418.258
600 1 -32.4947 2.45136 405.97 -32.4947 2.45136 405.97
1148 1 -47.7881 0.731674 419.602 -47.7881 0.731674 419.602
882 1 -36.2931 0.150626 411.064 -36.2931 4.57808 411.064
1157 1 -42.3719 4.42577 419.227 -42.3719 4.42577 419.227
1144 1 -50.1151 4.42862 419.28 -50.1151 4.42862 419.28
602 1 -30.9192 0.948145 407.318 -30.9192 0.948145 407.318
1755 1 -29.8742 2.79523 426.611 -29.8742 2.79523 426.611
1460 1 -34.5765 2.87772 422.57 -34.5765 2.87772 422.57
2308 1 -42.918 3.32144 437.184 -42.918 3.32144 437.184
2316 1 -38.3072 1.90524 434.442 -38.3072 1.90524 434.442
2312 1 -40.5928 4.05493 437.506 -40.5928 4.05493 437.506
1464 1 -32.2463 3.60716 422.898 -32.2463 3.60716 422.898
1461 1 -33.8145 0.683201 421.551 -33.8145 0.683201 421.551
2039 1 -32.1265 3.40969 433.051 -32.1265 3.40969 433.051
2613 1 -33.6162 1.82706 438.475 -33.6162 1.82706 438.475
1467 1 -29.9156 4.33635 423.227 -29.9156 4.33635 423.227
2603 1 -39.029 2.55304 438.85 -39.029 2.55304 438.85
1443 1 -43.8928 4.38541 421.27 -43.8928 4.38541 421.27
1748 1 -33.7713 3.56876 424.936 -33.7713 3.56876 424.936
2023 1 -40.6335 1.17256 434.119 -40.6335 1.17256 434.119
2310 1 -41.354 1.81939 438.528 -41.354 1.81939 438.528
1151 1 -45.4605 1.46193 419.925 -45.4605 1.46193 419.925
2303 1 -46.004 0.352107 437.885 -46.004 0.352107 437.885
2299 1 -48.3292 4.04613 437.564 -48.3292 4.04613 437.564
2033 1 -35.2176 0.44443 433.746 -35.2176 0.44443 433.746
1433 1 -49.3078 0.689697 421.646 -49.3078 0.689697 421.646
1430 1 -50.8282 0.646887 423.691 -50.8282 0.646887 423.691
1426 1 -52.3491 0.60339 425.735 -52.3491 0.60339 425.735
1713 1 -53.8706 0.559409 427.78 -53.8706 0.559409 427.78
1710 1 -55.3925 0.515178 429.825 -55.3925 0.515178 429.825
2330 1 -29.7624 2.59949 436.762 -29.7624 2.59949 436.762
1160 1 -40.0428 0.727941 419.552 -40.0428 0.727941 419.552
1447 1 -41.5645 0.688143 421.594 -41.5645 0.688143 421.594
1444 1 -43.0865 0.647483 423.636 -43.0865 0.647483 423.636
1730 1 -44.6088 0.605967 425.679 -44.6088 0.605967 425.679
1727 1 -46.1313 0.56363 427.722 -46.1313 0.56363 427.722
1724 1 -47.6538 0.520555 429.766 -47.6538 0.520555 429.766
2008 1 -49.1761 0.476878 431.81 -49.1761 0.476878 431.81
2006 1 -50.6982 0.432783 433.855 -50.6982 0.432783 433.855
1458 1 -35.3386 0.644613 423.59 -35.3386 0.644613 423.59
1743 1 -36.863 0.605302 425.63 -36.863 0.605302 425.63
1740 1 -38.3875 0.565203 427.67 -38.3875 0.565203 427.67
2026 1 -39.9119 0.524256 429.712 -39.9119 0.524256 429.712
2022 1 -41.436 0.482426 431.754 -41.436 0.482426 431.754
2019 1 -42.9596 0.439724 433.797 -42.9596 0.439724 433.797
2309 1 -42.1568 1.12954 436.162 -42.1568 1.12954 436.162
1137 1 -53.9599 3.65491 421.003 -53.9599 3.65491 421.003
1421 1 -55.4795 3.61115 423.048 -55.4795 3.61115 423.048
1439 1 -46.2206 3.65507 420.947 -46.2206 3.65507 420.947
1435 1 -47.7413 3.61323 422.99 -47.7413 3.61323 422.99
1432 1 -49.2624 3.57058 425.035 -49.2624 3.57058 425.035
1719 1 -50.7839 3.52722 427.079 -50.7839 3.52722 427.079
1716 1 -52.3058 3.48336 429.124 -52.3058 3.48336 429.124
2001 1 -53.8278 3.43919 431.168 -53.8278 3.43919 431.168
1998 1 -55.35 3.39496 433.213 -55.35 3.39496 433.213
2323 1 -33.6535 3.36979 435.09 -33.6535 3.36979 435.09
1453 1 -38.4744 3.65164 420.898 -38.4744 3.65164 420.898
1450 1 -39.997 3.61197 422.939 -39.997 3.61197 422.939
1446 1 -41.5199 3.57147 424.981 -41.5199 3.57147 424.981
1732 1 -43.0429 3.53013 427.023 -43.0429 3.53013 427.023
1729 1 -44.566 3.48795 429.066 -44.566 3.48795 429.066
2014 1 -46.0889 3.44501 431.109 -46.0889 3.44501 431.109
2011 1 -47.6114 3.4014 433.153 -47.6114 3.4014 433.153
1745 1 -35.2965 3.52967 426.975 -35.2965 3.52967 426.975
1742 1 -36.8218 3.48982 429.015 -36.8218 3.48982 429.015
2028 1 -38.3469 3.4491 431.056 -38.3469 3.4491 431.056
2025 1 -39.8715 3.40746 433.098 -39.8715 3.40746 433.098
1427 1 -52.394 2.15081 422.347 -52.394 2.15081 422.347
1424 1 -53.9143 2.10718 424.392 -53.9143 2.10718 424.392
1711 1 -55.4354 2.06307 426.437 -55.4354 2.06307 426.437
2322 1 -34.4167 1.1357 436.11 -34.4167 1.1357 436.11
1750 1 -32.2043 2.06557 426.283 -32.2043 2.06557 426.283
1155 1 -43.1323 2.19198 420.249 -43.1323 2.19198 420.249
1441 1 -44.6534 2.15117 422.291 -44.6534 2.15117 422.291
1438 1 -46.1749 2.10949 424.335 -46.1749 2.10949 424.335
1725 1 -47.6968 2.067 426.378 -47.6968 2.067 426.378
1722 1 -49.2188 2.02379 428.422 -49.2188 2.02379 428.422
1718 1 -50.7409 1.98002 430.467 -50.7409 1.98002 430.467
2003 1 -52.263 1.9359 432.512 -52.263 1.9359 432.512
2000 1 -53.785 1.89165 434.556 -53.785 1.89165 434.556
1459 1 -35.3832 2.18679 420.204 -35.3832 2.18679 420.204
1455 1 -36.9063 2.14805 422.244 -36.9063 2.14805 422.244
1452 1 -38.4298 2.10854 424.284 -38.4298 2.10854 424.284
1737 1 -39.9535 2.06823 426.325 -39.9535 2.06823 426.325
1735 1 -41.4773 2.02708 428.367 -41.4773 2.02708 428.367
2020 1 -43.0009 1.98507 430.41 -43.0009 1.98507 430.41
2017 1 -44.5241 1.94224 432.453 -44.5241 1.94224 432.453
2034 1 -35.2564 1.98715 430.361 -35.2564 1.98715 430.361
2031 1 -36.7821 1.94668 432.401 -36.7821 1.94668 432.401
2029 1 -37.5447 4.13981 433.421 -37.5447 4.13981 433.421
1146 1 -48.5479 2.92452 420.624 -48.5479 2.92452 420.624
1431 1 -50.0679 2.88211 422.669 -50.0679 2.88211 422.669
1428 1 -51.5886 2.83894 424.713 -51.5886 2.83894 424.713
1715 1 -53.1098 2.79517 426.758 -53.1098 2.79517 426.758
1712 1 -54.6315 2.75104 428.803 -54.6315 2.75104 428.803
1747 1 -33.7303 2.02674 428.321 -33.7303 2.02674 428.321
1449 1 -40.8036 2.92188 420.573 -40.8036 2.92188 420.573
1445 1 -42.3254 2.88165 422.615 -42.3254 2.88165 422.615
1442 1 -43.8476 2.84056 424.657 -43.8476 2.84056 424.657
1728 1 -45.37 2.79862 426.7 -45.37 2.79862 426.7
1726 1 -46.8925 2.7559 428.744 -46.8925 2.7559 428.744
2010 1 -48.415 2.71251 430.788 -48.415 2.71251 430.788
2007 1 -49.9372 2.6686 432.832 -49.9372 2.6686 432.832
1456 1 -36.1008 2.83878 424.61 -36.1008 2.83878 424.61
1741 1 -37.6252 2.79908 426.65 -37.6252 2.79908 426.65
1738 1 -39.1497 2.75857 428.691 -39.1497 2.75857 428.691
2024 1 -40.674 2.71718 430.732 -40.674 2.71718 430.732
2021 1 -42.1979 2.67491 432.775 -42.1979 2.67491 432.775
2035 1 -34.4545 2.67838 432.726 -34.4545 2.67838 432.726
1754 1 -30.6784 2.10375 424.245 -30.6784 2.10375 424.245
1423 1 -54.7196 1.41938 422.025 -54.7196 1.41938 422.025
2044 1 -29.0338 1.94605 432.36 -29.0338 1.94605 432.36
1437 1 -46.9809 1.42053 421.969 -46.9809 1.42053 421.969
1434 1 -48.5018 1.37827 424.012 -48.5018 1.37827 424.012
1721 1 -50.0231 1.33525 426.057 -50.0231 1.33525 426.057
1717 1 -51.5448 1.29162 428.101 -51.5448 1.29162 428.101
1714 1 -53.0668 1.24757 430.146 -53.0668 1.24757 430.146
1999 1 -54.5889 1.20335 432.191 -54.5889 1.20335 432.191
1164 1 -37.7132 1.45744 419.878 -37.7132 1.45744 419.878
1451 1 -39.2356 1.41818 421.918 -39.2356 1.41818 421.918
1448 1 -40.7584 1.3781 423.96 -40.7584 1.3781 423.96
1734 1 -42.2814 1.33718 426.002 -42.2814 1.33718 426.002
1731 1 -43.8044 1.29542 428.044 -43.8044 1.29542 428.044
2016 1 -45.3274 1.25284 430.087 -45.3274 1.25284 430.087
2012 1 -46.8502 1.20955 432.131 -46.8502 1.20955 432.131
2009 1 -48.3725 1.16568 434.176 -48.3725 1.16568 434.176
1746 1 -34.5339 1.33558 425.956 -34.5339 1.33558 425.956
1744 1 -36.0591 1.29612 427.995 -36.0591 1.29612 427.995
2030 1 -37.5844 1.25584 430.036 -37.5844 1.25584 430.036
2027 1 -39.1092 1.21467 432.077 -39.1092 1.21467 432.077
2325 1 -32.8901 1.17614 434.071 -32.8901 1.17614 434.071
1749 1 -32.9673 4.25996 427.302 -32.9673 4.25996 427.302
1425 1 -53.1541 4.3428 423.369 -53.1541 4.3428 423.369
1736 1 -40.7154 4.26149 427.346 -40.7154 4.26149 427.346
1142 1 -50.8745 2.19374 420.302 -50.8745 2.19374 420.302
1720 1 -49.9799 4.21569 429.445 -49.9799 4.21569 429.445
2005 1 -51.502 4.17172 431.489 -51.502 4.17172 431.489
2002 1 -53.024 4.12751 433.534 -53.024 4.12751 433.534
1169 1 -34.6217 4.41961 419.185 -34.6217 4.41961 419.185
1723 1 -48.4578 4.2592 427.4 -48.4578 4.2592 427.4
1440 1 -45.4141 4.34417 423.313 -45.4141 4.34417 423.313
1733 1 -42.2391 4.21991 429.388 -42.2391 4.21991 429.388
2018 1 -43.7626 4.17748 431.431 -43.7626 4.17748 431.431
2015 1 -45.2855 4.13428 433.475 -45.2855 4.13428 433.475
2036 1 -34.4934 4.22077 429.341 -34.4934 4.22077 429.341
2032 1 -36.0193 4.18076 431.38 -36.0193 4.18076 431.38
2326 1 -32.0897 1.86783 436.436 -32.0897 1.86783 436.436
1752 1 -31.4413 4.29846 425.264 -31.4413 4.29846 425.264
1457 1 -36.1447 4.38124 421.224 -36.1447 4.38124 421.224
2043 1 -29.8351 1.25414 429.995 -29.8351 1.25414 429.995
2286 1 -55.3067 1.84748 436.601 -55.3067 1.84748 436.601
2319 1 -35.942 1.09411 438.152 -35.942 1.09411 438.152
1436 1 -46.9358 4.30207 425.356 -46.9358 4.30207 425.356
1422 1 -54.6747 4.29889 425.414 -54.6747 4.29889 425.414
1173 1 -32.2908 0.72111 419.513 -32.2908 0.72111 419.513
2293 1 -51.4151 1.07701 438.265 -51.4151 1.07701 438.265
2289 1 -53.7411 0.344216 437.944 -53.7411 0.344216 437.944
2295 1 -49.8497 4.00161 439.609 -49.8497 4.00161 439.609
1465 1 -31.4839 1.4124 421.879 -31.4839 1.4124 421.879
2315 1 -38.2675 0.360882 437.829 -38.2675 0.360882 437.829
2331 1 -29.798 4.14057 433.379 -29.798 4.14057 433.379
2297 1 -49.0896 1.81015 438.586 -49.0896 1.81015 438.586
2324 1 -32.8532 4.06133 437.455 -32.8532 4.06133 437.455
2306 1 -43.6789 1.08571 438.206 -43.6789 1.08571 438.206
2285 1 -55.2617 0.300202 439.989 -55.2617 0.300202 439.989
1462 1 -33.0087 1.37431 423.917 -33.0087 1.37431 423.917
1751 1 -31.401 2.75701 428.648 -31.401 2.75701 428.648
2329 1 -30.5621 1.90742 434.397 -30.5621 1.90742 434.397
2042 1 -30.599 3.44867 431.014 -30.599 3.44867 431.014
2041 1 -31.3628 1.21556 432.032 -31.3628 1.21556 432.032
2593 1 -44.4395 3.27728 439.229 -44.4395 3.27728 439.229
2328 1 -30.5264 0.365994 437.781 -30.5264 0.365994 437.781
2301 1 -46.7644 2.5436 438.907 -46.7644 2.5436 438.907
1466 1 -30.7216 3.64494 420.86 -30.7216 3.64494 420.86
2298 1 -49.1334 3.35731 435.198 -49.1334 3.35731 435.198
2321 1 -35.1795 3.32878 437.131 -35.1795 3.32878 437.131
2313 1 -39.8312 1.86279 436.484 -39.8312 1.86279 436.484
2294 1 -50.6547 3.31295 437.243 -50.6547 3.31295 437.243
2304 1 -45.2433 2.58796 436.863 -45.2433 2.58796 436.863
2300 1 -47.5686 1.8546 436.541 -47.5686 1.8546 436.541
2290 1 -52.9806 2.58006 436.922 -52.9806 2.58006 436.922
2318 1 -36.7432 0.403204 435.786 -36.7432 0.403204 435.786
2327 1 -31.326 4.10149 435.416 -31.326 4.10149 435.416
2004 1 -51.4591 2.62437 434.877 -51.4591 2.62437 434.877
2013 1 -46.0468 1.8987 434.497 -46.0468 1.8987 434.497
2288 1 -54.5459 4.08327 435.579 -54.5459 4.08327 435.579
2037 1 -33.6913 0.484626 431.706 -33.6913 0.484626 431.706
1739 1 -39.1917 4.30222 425.305 -39.1917 4.30222 425.305
1753 1 -30.6376 0.562469 427.63 -30.6376 0.562469 427.63
2307 1 -43.7211 2.6318 434.818 -43.7211 2.6318 434.818
2314 1 -39.0694 4.09787 435.463 -39.0694 4.09787 435.463
2040 1 -32.1645 0.523921 429.667 -32.1645 0.523921 429.667
2320 1 -35.9805 2.63768 434.766 -35.9805 2.63768 434.766
2292 1 -52.2199 0.388486 435.9 -52.2199 0.388486 435.9
2311 1 -41.3953 3.36488 435.14 -41.3953 3.36488 435.14
2302 1 -46.8078 4.09043 435.519 -46.8078 4.09043 435.519
2296 1 -49.8942 1.12142 436.22 -49.8942 1.12142 436.22
1463 1 -33.0526 2.91596 420.532 -33.0526 2.91596 420.532
2287 1 -54.5015 2.53589 438.967 -54.5015 2.53589 438.967
2291 1 -52.1753 3.26856 439.288 -52.1753 3.26856 439.288
2317 1 -37.5055 2.59591 436.807 -37.5055 2.59591 436.807
2038 1 -32.9279 2.7181 430.687 -32.9279 2.7181 430.687
2305 1 -44.4823 0.396233 435.84 -44.4823 0.396233 435.84
2332 1 -28.9981 0.405254 435.743 -28.9981 0.405254 435.743
1468 1 -29.9594 1.44988 419.842 -29.9594 1.44988 419.842
1454 1 -37.668 4.34212 423.264 -37.668 4.34212 423.264
1429 1 -51.6342 4.3861 421.324 -51.6342 4.3861 421.324
1175 1 -31.529 2.95355 418.494 -31.529 2.95355 418.494
2616 1 -31.2537 1.01698 442.185 -31.2537 1.01698 442.185
2901 1 -32.7773 0.974276 444.227 -32.7773 0.974276 444.227
2907 1 -29.6918 3.94314 443.53 -29.6918 3.94314 443.53
3194 1 -30.4142 0.163272 447.939 -30.4142 0.163272 447.939
2587 1 -47.5245 0.307571 439.93 -47.5245 0.307571 439.93
2597 1 -42.1148 4.0111 439.55 -42.1148 4.0111 439.55
2584 1 -49.0437 0.262901 441.976 -49.0437 0.262901 441.976
2581 1 -50.5616 0.2184 444.021 -50.5616 0.2184 444.021
2868 1 -52.0784 0.174377 446.066 -52.0784 0.174377 446.066
2865 1 -53.5943 0.131118 448.111 -53.5943 0.131118 448.111
2601 1 -39.7902 0.317504 439.872 -39.7902 0.317504 439.872
2598 1 -41.3109 0.273236 441.917 -41.3109 0.273236 441.917
2885 1 -42.8296 0.228363 443.962 -42.8296 0.228363 443.962
2882 1 -44.3462 0.183266 446.009 -44.3462 0.183266 446.009
2879 1 -45.8608 0.138373 448.056 -45.8608 0.138373 448.056
2612 1 -33.5782 0.283485 441.862 -33.5782 0.283485 441.862
2898 1 -35.1004 0.24005 443.905 -35.1004 0.24005 443.905
2895 1 -36.6197 0.195369 445.95 -36.6197 0.195369 445.95
3180 1 -38.1358 0.149853 447.997 -38.1358 0.149853 447.997
2576 1 -53.6952 3.22439 441.333 -53.6952 3.22439 441.333
2574 1 -55.2142 3.18069 443.378 -55.2142 3.18069 443.378
2589 1 -45.9594 3.23265 441.274 -45.9594 3.23265 441.274
2586 1 -47.4778 3.18784 443.32 -47.4778 3.18784 443.32
2874 1 -48.9947 3.14319 445.366 -48.9947 3.14319 445.366
2871 1 -50.5103 3.09903 447.411 -50.5103 3.09903 447.411
3155 1 -52.0247 3.05569 449.457 -52.0247 3.05569 449.457
2607 1 -36.704 3.28658 439.173 -36.704 3.28658 439.173
2604 1 -38.2266 3.24321 441.216 -38.2266 3.24321 441.216
2600 1 -39.747 3.19884 443.261 -39.747 3.19884 443.261
2887 1 -41.2649 3.1538 445.307 -41.2649 3.1538 445.307
2884 1 -42.7804 3.10851 447.354 -42.7804 3.10851 447.354
3168 1 -44.2937 3.06348 449.401 -44.2937 3.06348 449.401
2900 1 -33.5379 3.16605 445.249 -33.5379 3.16605 445.249
2897 1 -35.0565 3.12116 447.295 -35.0565 3.12116 447.295
2582 1 -50.6095 1.76562 440.632 -50.6095 1.76562 440.632
2579 1 -52.1285 1.72129 442.677 -52.1285 1.72129 442.677
2866 1 -53.6464 1.67743 444.722 -53.6464 1.67743 444.722
2578 1 -52.9354 1.0327 440.31 -52.9354 1.0327 440.31
2595 1 -42.8751 1.77519 440.573 -42.8751 1.77519 440.573
2592 1 -44.3945 1.73045 442.618 -44.3945 1.73045 442.618
2880 1 -45.912 1.6855 444.664 -45.912 1.6855 444.664
2877 1 -47.4278 1.64072 446.711 -47.4278 1.64072 446.711
2873 1 -48.942 1.59649 448.757 -48.942 1.59649 448.757
2609 1 -35.1409 1.78497 440.517 -35.1409 1.78497 440.517
2606 1 -36.6634 1.74158 442.56 -36.6634 1.74158 442.56
2892 1 -38.1832 1.69707 444.605 -38.1832 1.69707 444.605
2890 1 -39.7003 1.65181 446.652 -39.7003 1.65181 446.652
3174 1 -41.2146 1.60628 448.699 -41.2146 1.60628 448.699
2618 1 -30.4908 3.25144 441.165 -30.4908 3.25144 441.165
2585 1 -48.2842 2.49896 440.953 -48.2842 2.49896 440.953
2583 1 -49.8028 2.45434 442.998 -49.8028 2.45434 442.998
2870 1 -51.3202 2.41004 445.044 -51.3202 2.41004 445.044
2867 1 -52.8365 2.36636 447.089 -52.8365 2.36636 447.089
2863 1 -54.3519 2.32358 449.134 -54.3519 2.32358 449.134
2599 1 -40.5508 2.50919 440.894 -40.5508 2.50919 440.894
2596 1 -42.0706 2.46458 442.939 -42.0706 2.46458 442.939
2883 1 -43.5882 2.41954 444.986 -43.5882 2.41954 444.986
2881 1 -45.1038 2.37449 447.032 -45.1038 2.37449 447.032
3164 1 -46.6174 2.32987 449.079 -46.6174 2.32987 449.079
2610 1 -34.3397 2.47567 442.883 -34.3397 2.47567 442.883
2896 1 -35.8605 2.43157 444.927 -35.8605 2.43157 444.927
2893 1 -37.3782 2.38641 446.973 -37.3782 2.38641 446.973
3178 1 -38.8927 2.34068 449.021 -38.8927 2.34068 449.021
2575 1 -54.4548 0.98874 442.355 -54.4548 0.98874 442.355
2591 1 -45.1996 1.04128 440.251 -45.1996 1.04128 440.251
2588 1 -46.7188 0.996519 442.297 -46.7188 0.996519 442.297
2876 1 -48.2365 0.951745 444.343 -48.2365 0.951745 444.343
2872 1 -49.7527 0.907302 446.389 -49.7527 0.907302 446.389
2869 1 -51.2676 0.863519 448.434 -51.2676 0.863519 448.434
2605 1 -37.4656 1.05131 440.194 -37.4656 1.05131 440.194
2602 1 -38.9871 1.0074 442.238 -38.9871 1.0074 442.238
2889 1 -40.5062 0.962651 444.284 -40.5062 0.962651 444.284
2886 1 -42.023 0.917428 446.33 -42.023 0.917428 446.33
3170 1 -43.5373 0.872205 448.378 -43.5373 0.872205 448.378
2899 1 -34.2977 0.930029 446.272 -34.2977 0.930029 446.272
3184 1 -35.8145 0.884613 448.318 -35.8145 0.884613 448.318
2580 1 -51.3691 3.95714 441.654 -51.3691 3.95714 441.654
2577 1 -52.8875 3.91301 443.699 -52.8875 3.91301 443.699
2864 1 -54.4051 3.86948 445.744 -54.4051 3.86948 445.744
2862 1 -55.1635 1.63429 446.766 -55.1635 1.63429 446.766
2594 1 -43.635 3.96659 441.595 -43.635 3.96659 441.595
2590 1 -45.1535 3.9217 443.641 -45.1535 3.9217 443.641
2878 1 -46.6701 3.87679 445.687 -46.6701 3.87679 445.687
2875 1 -48.1851 3.83224 447.734 -48.1851 3.83224 447.734
3159 1 -49.6987 3.78842 449.78 -49.6987 3.78842 449.78
2611 1 -34.3788 4.01991 439.496 -34.3788 4.01991 439.496
2608 1 -35.9024 3.97716 441.538 -35.9024 3.97716 441.538
2894 1 -37.4236 3.93317 443.583 -37.4236 3.93317 443.583
2891 1 -38.9421 3.88823 445.628 -38.9421 3.88823 445.628
2888 1 -40.4578 3.84277 447.675 -40.4578 3.84277 447.675
2904 1 -31.2154 3.90041 445.572 -31.2154 3.90041 445.572
2621 1 -28.9634 3.29172 439.126 -28.9634 3.29172 439.126
2617 1 -31.29 2.55963 438.8 -31.29 2.55963 438.8
2614 1 -32.816 2.51839 440.841 -32.816 2.51839 440.841
2908 1 -28.8927 0.207081 445.896 -28.8927 0.207081 445.896
2619 1 -29.7274 1.05805 440.145 -29.7274 1.05805 440.145
2906 1 -29.654 2.39915 446.917 -29.654 2.39915 446.917
2905 1 -30.454 1.70828 444.551 -30.454 1.70828 444.551
2620 1 -28.9288 1.75008 442.51 -28.9288 1.75008 442.51
3190 1 -32.7352 3.85596 447.617 -32.7352 3.85596 447.617
2902 1 -31.9758 1.66465 446.594 -31.9758 1.66465 446.594
2903 1 -32.0158 3.20956 443.206 -32.0158 3.20956 443.206
2615 1 -32.0533 0.325464 439.82 -32.0533 0.325464 439.82
2909 1 -28.1305 2.44195 444.875 -28.1305 2.44195 444.875
14 1 -50.5273 0.410366 399.062 -50.5273 4.83782 399.062
7 1 -55.0557 3.3595 398.522 -55.0557 3.3595 398.522
25 1 -42.7341 0.409362 398.94 -42.7341 4.83682 398.94
38 1 -34.9275 0.341883 398.847 -34.9275 4.76934 398.847
23 1 -44.2416 0.357469 400.967 -44.2416 4.78492 400.967
287 1 -47.2566 0.279005 405.026 -47.2566 4.70646 405.026
878 1 -37.8122 0.113899 413.104 -37.8122 4.54135 413.104
579 1 -44.0463 0.16154 411.107 -44.0463 4.58899 411.107
585 1 -41.0151 0.234843 407.024 -41.0151 4.6623 407.024
290 1 -45.7506 0.317428 402.99 -45.7506 4.74488 402.99
11 1 -51.9875 0.348104 401.034 -51.9875 4.77556 401.034
595 1 -34.7741 0.186372 409.025 -34.7741 4.61383 409.025
283 1 -48.7664 0.242912 407.067 -48.7664 4.67036 407.067
582 1 -42.5305 0.198763 409.065 -42.5305 4.62622 409.065
276 1 -53.5028 0.330606 403.038 -53.5028 4.75806 403.038
569 1 -50.2773 0.206431 409.109 -50.2773 4.63388 409.109
847 1 -54.8176 0.0868773 415.245 -54.8176 4.51433 415.245
272 1 -55.0003 0.296914 405.073 -55.0003 4.72437 405.073
35 1 -36.4585 0.330601 400.894 -36.4585 4.75805 400.894
598 1 -33.2546 0.220935 406.988 -33.2546 4.64839 406.988
850 1 -53.3027 0.127904 413.199 -53.3027 4.55536 413.199
304 1 -37.9816 0.30363 402.941 -37.9816 4.73108 402.941
301 1 -39.4993 0.269814 404.983 -39.4993 4.69727 404.983
314 1 -31.734 0.254251 404.952 -31.734 4.6817 404.952
864 1 -45.5625 0.123126 413.149 -45.5625 4.55058 413.149
566 1 -51.7891 0.167677 411.154 -51.7891 4.59513 411.154
1176 1 -31.5768 0.0667272 415.108 -31.5768 4.49418 415.108
85 1 -6.24875 1.1519 395.248 -6.24875 1.1519 395.248
58 1 -23.2818 1.08059 397.21 -23.2818 1.08059 397.21
45 1 -31.1148 1.14567 397.297 -31.1148 1.14567 397.297
49 1 -28.7234 1.82391 397.559 -28.7234 1.82391 397.559
72 1 -14.7933 3.34567 396.253 -14.7933 3.34567 396.253
80 1 -9.32047 2.57791 395.889 -9.32047 2.57791 395.889
75 1 -12.4041 4.02681 396.519 -12.4041 4.02681 396.519
83 1 -6.98851 3.35113 396.164 -6.98851 3.35113 396.164
52 1 -26.4003 2.60273 397.866 -26.4003 2.60273 397.866
61 1 -20.9591 1.86011 397.518 -20.9591 1.86011 397.518
63 1 -20.2314 4.087 396.598 -20.2314 4.087 396.598
87 1 -4.62509 4.03368 396.443 -4.62509 4.03368 396.443
70 1 -15.5186 1.11898 397.173 -15.5186 1.11898 397.173
47 1 -29.4866 4.02561 398.493 -29.4866 4.02561 398.493