ITEM: TIMESTEP
0
ITEM: NUMBER OF ATOMS
4630
ITEM: BOX BOUNDS xy xz yz pp pp pp
-5.9740988501799997e+01 1.0276002035000000e+02 0.0000000000000000e+00
0.0000000000000000e+00 4.4274527100805940e+00 0.0000000000000000e+00
3.8000000000000000e+02 5.0000000000000000e+02 0.0000000000000000e+00
ITEM: ATOMS id type x y z xu yu zu
27 1 -43.2078 2.63795 398.464 -43.2078 2.63795 398.464
36 1 -37.8187 1.8886 398.511 -37.8187 1.8886 398.511
31 1 -40.8476 3.30072 398.896 -40.8476 3.30072 398.896
22 1 -46.2717 4.05982 398.888 -46.2717 4.05982 398.888
20 1 -47.0536 1.84704 399.774 -47.0536 1.84704 399.774
40 1 -35.4615 2.55412 398.95 -35.4615 2.55412 398.95
34 1 -38.583 4.09133 399.388 -38.583 4.09133 399.388
17 1 -49.327 1.07923 399.294 -49.327 1.07923 399.294
9 1 -54.6648 1.75518 399.221 -54.6648 1.75518 399.221
43 1 -33.2004 3.34663 399.447 -33.2004 3.34663 399.447
12 1 -52.4377 2.61558 399.742 -52.4377 2.61558 399.742
5 1 -57.0194 1.14544 398.786 -57.0194 1.14544 398.786
29 1 -41.667 1.07805 399.776 -41.667 1.07805 399.776
853 1 -53.9292 3.04089 414.315 -53.9292 3.04089 414.315
873 1 -43.1937 1.55414 414.408 -43.1937 1.55414 414.408
865 1 -47.1031 0.790562 415.835 -47.1031 0.790562 415.835
1174 1 -34.9118 2.22666 417.412 -34.9118 2.22666 417.412
883 1 -37.8264 0.811439 414.459 -37.8264 0.811439 414.459
863 1 -48.5615 2.29768 414.361 -48.5615 2.29768 414.361
315 1 -33.3795 1.77031 402.819 -33.3795 1.77031 402.819
307 1 -38.1179 3.21052 405.202 -38.1179 3.21052 405.202
1150 1 -48.7374 0.752613 417.769 -48.7374 0.752613 417.769
855 1 -52.4709 1.53407 415.789 -52.4709 1.53407 415.789
310 1 -36.4822 3.24682 403.274 -36.4822 3.24682 403.274
871 1 -44.0108 3.74896 415.375 -44.0108 3.74896 415.375
16 1 -50.1314 3.28545 400.181 -50.1314 3.28545 400.181
309 1 -36.6566 1.70279 406.675 -36.6566 1.70279 406.675
1156 1 -45.6451 3.71108 417.309 -45.6451 3.71108 417.309
867 1 -46.286 3.02322 414.868 -46.286 3.02322 414.868
1159 1 -43.3703 0.00968901 417.816 -43.3703 4.43714 417.816
1168 1 -38.0038 3.69521 417.868 -38.0038 3.69521 417.868
1170 1 -37.1864 1.50026 416.901 -37.1864 1.50026 416.901
594 1 -37.4742 3.89863 407.641 -37.4742 3.89863 407.641
37 1 -37.1157 2.54423 400.838 -37.1157 2.54423 400.838
851 1 -54.7461 0.808449 415.282 -54.7461 0.808449 415.282
857 1 -51.654 3.76673 414.822 -51.654 3.76673 414.822
592 1 -38.2915 1.66658 408.607 -38.2915 1.66658 408.607
849 1 -55.563 3.00341 416.249 -55.563 3.00341 416.249
877 1 -40.9186 2.28019 414.916 -40.9186 2.28019 414.916
1143 1 -53.2878 3.72887 416.756 -53.2878 3.72887 416.756
1140 1 -54.9215 3.69085 418.69 -54.9215 3.69085 418.69
845 1 -57.8383 2.27852 415.743 -57.8383 2.27852 415.743
875 1 -41.7358 0.0475726 415.883 -41.7358 4.47503 415.883
886 1 -36.1917 0.848666 412.527 -36.1917 0.848666 412.527
891 1 -33.0985 3.80634 412.073 -33.0985 3.80634 412.073
39 1 -35.6691 1.0498 402.308 -35.6691 1.0498 402.308
1177 1 -33.4549 0.72083 418.889 -33.4549 0.72083 418.889
1167 1 -38.8213 1.46263 418.834 -38.8213 1.46263 418.834
8 1 -55.515 4.02774 400.217 -55.515 4.02774 400.217
869 1 -44.828 1.51631 416.342 -44.828 1.51631 416.342
1136 1 -57.1964 2.96553 418.184 -57.1964 2.96553 418.184
1162 1 -41.913 2.93081 419.291 -41.913 2.93081 419.291
15 1 -50.9618 1.06759 401.191 -50.9618 1.06759 401.191
280 1 -52.5913 1.03808 403.126 -52.5913 1.03808 403.126
277 1 -54.225 1.01317 405.058 -54.225 1.01317 405.058
273 1 -55.8545 0.976401 406.996 -55.8545 0.976401 406.996
560 1 -57.4885 0.94114 408.931 -57.4885 0.94114 408.931
557 1 -59.123 0.905484 410.864 -59.123 0.905484 410.864
26 1 -43.3125 1.06454 401.725 -43.3125 1.06454 401.725
294 1 -44.95 1.03518 403.675 -44.95 1.03518 403.675
291 1 -46.5833 0.99864 405.613 -46.5833 0.99864 405.613
576 1 -48.2145 0.959904 407.547 -48.2145 0.959904 407.547
573 1 -49.8463 0.921767 409.481 -49.8463 0.921767 409.481
570 1 -51.4788 0.883629 411.415 -51.4788 0.883629 411.415
854 1 -53.1123 0.845881 413.349 -53.1123 0.845881 413.349
305 1 -38.9346 0.978544 406.166 -38.9346 0.978544 406.166
589 1 -40.568 0.94129 408.099 -40.568 0.94129 408.099
586 1 -42.2014 0.903805 410.033 -42.2014 0.903805 410.033
872 1 -43.8351 0.866161 411.967 -43.8351 0.866161 411.967
599 1 -34.5566 0.885328 410.595 -34.5566 0.885328 410.595
1132 1 -59.4714 2.24063 417.677 -59.4714 2.24063 417.677
4 1 -57.1549 4.04024 402.098 -57.1549 4.04024 402.098
268 1 -58.7715 3.99611 404.059 -58.7715 3.99611 404.059
1152 1 -47.9203 2.98532 416.802 -47.9203 2.98532 416.802
19 1 -47.8827 4.03358 400.754 -47.8827 4.03358 400.754
286 1 -49.5076 3.99615 402.654 -49.5076 3.99615 402.654
282 1 -51.1317 3.96161 404.593 -51.1317 3.96161 404.593
279 1 -52.7632 3.93043 406.528 -52.7632 3.93043 406.528
565 1 -54.3948 3.89494 408.466 -54.3948 3.89494 408.466
563 1 -56.0288 3.85935 410.401 -56.0288 3.85935 410.401
846 1 -57.6633 3.82364 412.336 -57.6633 3.82364 412.336
32 1 -40.2257 4.03177 401.298 -40.2257 4.03177 401.298
300 1 -41.859 3.99402 403.22 -41.859 3.99402 403.22
297 1 -43.4902 3.95598 405.153 -43.4902 3.95598 405.153
293 1 -45.1221 3.91873 407.086 -45.1221 3.91873 407.086
578 1 -46.7542 3.88083 409.02 -46.7542 3.88083 409.02
575 1 -48.387 3.84282 410.954 -48.387 3.84282 410.954
860 1 -50.0202 3.80471 412.888 -50.0202 3.80471 412.888
591 1 -39.1086 3.86178 409.574 -39.1086 3.86178 409.574
588 1 -40.7426 3.82439 411.507 -40.7426 3.82439 411.507
874 1 -42.3766 3.78674 413.441 -42.3766 3.78674 413.441
10 1 -54.0608 2.54184 401.662 -54.0608 2.54184 401.662
274 1 -55.692 2.5287 403.583 -55.692 2.5287 403.583
271 1 -57.3148 2.48681 405.527 -57.3148 2.48681 405.527
558 1 -58.9489 2.45135 407.46 -58.9489 2.45135 407.46
24 1 -44.8027 2.59214 400.322 -44.8027 2.59214 400.322
21 1 -46.4262 2.54574 402.217 -46.4262 2.54574 402.217
288 1 -48.0487 2.50601 404.143 -48.0487 2.50601 404.143
285 1 -49.6752 2.46447 406.075 -49.6752 2.46447 406.075
571 1 -51.3056 2.4269 408.007 -51.3056 2.4269 408.007
568 1 -52.9371 2.38929 409.941 -52.9371 2.38929 409.941
852 1 -54.5705 2.35229 411.875 -54.5705 2.35229 411.875
848 1 -56.2045 2.31565 413.809 -56.2045 2.31565 413.809
306 1 -38.7589 2.51727 402.759 -38.7589 2.51727 402.759
302 1 -40.3949 2.48415 404.688 -40.3949 2.48415 404.688
299 1 -42.0279 2.44768 406.623 -42.0279 2.44768 406.623
583 1 -43.6609 2.41076 408.558 -43.6609 2.41076 408.558
581 1 -45.2941 2.37329 410.493 -45.2941 2.37329 410.493
866 1 -46.9277 2.33557 412.427 -46.9277 2.33557 412.427
880 1 -39.2843 2.31784 412.983 -39.2843 2.31784 412.983
312 1 -35.0199 1.7378 404.744 -35.0199 1.7378 404.744
2 1 -58.6434 1.16347 400.675 -58.6434 1.16347 400.675
13 1 -51.7681 3.26206 402.139 -51.7681 3.26206 402.139
278 1 -53.4074 3.24026 404.083 -53.4074 3.24026 404.083
275 1 -55.0384 3.20857 406.024 -55.0384 3.20857 406.024
562 1 -56.6708 3.17227 407.963 -56.6708 3.17227 407.963
559 1 -58.3057 3.13718 409.897 -58.3057 3.13718 409.897
1166 1 -39.6387 3.65745 419.8 -39.6387 3.65745 419.8
889 1 -33.9163 1.57441 413.038 -33.9163 1.57441 413.038
28 1 -42.4991 3.29414 400.785 -42.4991 3.29414 400.785
296 1 -44.1356 3.26506 402.712 -44.1356 3.26506 402.712
292 1 -45.768 3.23102 404.646 -45.768 3.23102 404.646
289 1 -47.3989 3.19313 406.581 -47.3989 3.19313 406.581
574 1 -49.0303 3.15461 408.514 -49.0303 3.15461 408.514
572 1 -50.6625 3.11646 410.448 -50.6625 3.11646 410.448
856 1 -52.2955 3.07843 412.382 -52.2955 3.07843 412.382
303 1 -39.7517 3.17362 407.132 -39.7517 3.17362 407.132
587 1 -41.3848 3.13625 409.066 -41.3848 3.13625 409.066
584 1 -43.0182 3.09871 411 -43.0182 3.09871 411
870 1 -44.652 3.06102 412.934 -44.652 3.06102 412.934
6 1 -56.3412 1.83726 401.121 -56.3412 1.83726 401.121
270 1 -57.9568 1.80058 403.083 -57.9568 1.80058 403.083
267 1 -59.5898 1.7645 405.021 -59.5898 1.7645 405.021
890 1 -33.2765 2.2636 415.481 -33.2765 2.2636 415.481
18 1 -48.691 1.80156 401.695 -48.691 1.80156 401.695
284 1 -50.3165 1.76583 403.628 -50.3165 1.76583 403.628
281 1 -51.9476 1.73331 405.563 -51.9476 1.73331 405.563
567 1 -53.5789 1.69941 407.498 -53.5789 1.69941 407.498
564 1 -55.2117 1.66337 409.434 -55.2117 1.66337 409.434
561 1 -56.8461 1.62789 411.369 -56.8461 1.62789 411.369
844 1 -58.4804 1.59168 413.303 -58.4804 1.59168 413.303
33 1 -39.4199 1.83889 400.366 -39.4199 1.83889 400.366
30 1 -41.0496 1.79681 402.251 -41.0496 1.79681 402.251
298 1 -42.675 1.76032 404.183 -42.675 1.76032 404.183
295 1 -44.3061 1.7236 406.118 -44.3061 1.7236 406.118
580 1 -45.938 1.68605 408.053 -45.938 1.68605 408.053
577 1 -47.5705 1.64807 409.987 -47.5705 1.64807 409.987
862 1 -49.2035 1.61003 411.921 -49.2035 1.61003 411.921
590 1 -39.9256 1.62941 410.541 -39.9256 1.62941 410.541
876 1 -41.5595 1.59187 412.474 -41.5595 1.59187 412.474
1163 1 -41.0957 0.736057 418.325 -41.0957 0.736057 418.325
1153 1 -47.2795 3.67307 419.243 -47.2795 3.67307 419.243
311 1 -35.8378 3.93437 405.71 -35.8378 3.93437 405.71
42 1 -34.0349 1.09418 400.426 -34.0349 1.09418 400.426
1135 1 -58.0129 0.732656 419.151 -58.0129 0.732656 419.151
1171 1 -36.5469 2.18931 419.344 -36.5469 2.18931 419.344
1139 1 -55.7381 1.45797 419.657 -55.7381 1.45797 419.657
601 1 -33.7387 3.11709 409.63 -33.7387 3.11709 409.63
313 1 -34.1977 3.96921 403.777 -34.1977 3.96921 403.777
858 1 -50.8371 1.57196 413.855 -50.8371 1.57196 413.855
868 1 -45.469 0.828414 413.901 -45.469 0.828414 413.901
1147 1 -51.0126 0.0270172 417.262 -51.0126 4.45447 417.262
843 1 -59.2972 3.78688 414.27 -59.2972 3.78688 414.27
593 1 -37.65 2.35521 411.05 -37.65 2.35521 411.05
308 1 -37.3002 1.01428 404.235 -37.3002 1.01428 404.235
861 1 -49.3785 0.0649791 415.328 -49.3785 4.49243 415.328
1158 1 -44.1875 2.20443 418.783 -44.1875 2.20443 418.783
884 1 -37.0091 3.04383 413.493 -37.0091 3.04383 413.493
881 1 -38.6437 3.00641 415.425 -38.6437 3.00641 415.425
885 1 -36.3689 3.73269 415.935 -36.3689 3.73269 415.935
859 1 -50.1956 2.25973 416.295 -50.1956 2.25973 416.295
596 1 -36.0154 2.39205 409.118 -36.0154 2.39205 409.118
879 1 -39.4611 0.773862 416.392 -39.4611 0.773862 416.392
1172 1 -35.7294 4.42176 418.378 -35.7294 4.42176 418.378
1154 1 -46.4623 1.47836 418.276 -46.4623 1.47836 418.276
887 1 -35.5515 1.53757 414.969 -35.5515 1.53757 414.969
597 1 -35.3742 3.08081 411.561 -35.3742 3.08081 411.561
1161 1 -42.553 2.24237 416.849 -42.553 2.24237 416.849
1138 1 -56.3798 0.770807 417.216 -56.3798 0.770807 417.216
1149 1 -49.5545 2.94732 418.736 -49.5545 2.94732 418.736
41 1 -34.8444 3.28483 401.355 -34.8444 3.28483 401.355
888 1 -34.7339 3.76978 414.004 -34.7339 3.76978 414.004
1165 1 -40.2784 2.96871 417.358 -40.2784 2.96871 417.358
1141 1 -54.1047 1.49617 417.723 -54.1047 1.49617 417.723
1145 1 -51.8296 2.22172 418.229 -51.8296 2.22172 418.229
600 1 -34.3799 2.42813 407.188 -34.3799 2.42813 407.188
1148 1 -50.3715 0.714524 419.703 -50.3715 0.714524 419.703
882 1 -38.4671 0.122846 412.017 -38.4671 4.5503 412.017
1157 1 -45.0047 4.39912 419.75 -45.0047 4.39912 419.75
1144 1 -52.6465 4.41637 419.196 -52.6465 4.41637 419.196
602 1 -32.9206 0.921172 408.665 -32.9206 0.921172 408.665
1131 1 -59.6455 0.693909 421.086 -59.6455 0.693909 421.086
1755 1 -33.1754 2.75263 428.148 -33.1754 2.75263 428.148
1460 1 -37.543 2.84079 423.718 -37.543 2.84079 423.718
2308 1 -46.6999 3.29476 437.764 -46.6999 3.29476 437.764
2316 1 -41.9819 1.86926 435.37 -41.9819 1.86926 435.37
2312 1 -44.4282 4.02318 438.273 -44.4282 4.02318 438.273
1464 1 -35.2693 3.56804 424.229 -35.2693 3.56804 424.229
1461 1 -36.7255 0.646002 422.752 -36.7255 0.646002 422.752
2039 1 -35.8058 3.36552 434.455 -35.8058 3.36552 434.455
2613 1 -37.6145 1.78185 439.799 -37.6145 1.78185 439.799
1467 1 -32.9957 4.29528 424.74 -32.9957 4.29528 424.74
2603 1 -42.9718 2.51807 439.749 -42.9718 2.51807 439.749
1443 1 -46.639 4.36093 421.684 -46.639 4.36093 421.684
1748 1 -36.9043 3.53013 426.16 -36.9043 3.53013 426.16
2023 1 -44.2538 1.14096 434.861 -44.2538 1.14096 434.861
2310 1 -45.2431 1.78942 439.24 -45.2431 1.78942 439.24
1151 1 -48.0966 1.44028 420.21 -48.0966 1.44028 420.21
2303 1 -49.7869 0.332849 438.225 -49.7869 0.332849 438.225
2299 1 -52.0594 4.0326 437.718 -52.0594 4.0326 437.718
2033 1 -38.8941 0.403737 434.912 -38.8941 0.403737 434.912
1433 1 -52.0052 0.676171 421.637 -52.0052 0.676171 421.637
1430 1 -53.6383 0.63746 423.572 -53.6383 0.63746 423.572
1426 1 -55.2709 0.598362 425.507 -55.2709 0.598362 425.507
1713 1 -56.903 0.558903 427.443 -56.903 0.558903 427.443
1710 1 -58.5345 0.51915 429.379 -58.5345 0.51915 429.379
2330 1 -33.712 2.55024 438.375 -33.712 2.55024 438.375
1160 1 -42.7303 0.698066 420.258 -42.7303 0.698066 420.258
1447 1 -44.3647 0.659882 422.191 -44.3647 0.659882 422.191
1444 1 -45.9987 0.621457 424.125 -45.9987 0.621457 424.125
1730 1 -47.6323 0.582735 426.059 -47.6323 0.582735 426.059
1727 1 -49.2652 0.543681 427.994 -49.2652 0.543681 427.994
1724 1 -50.8975 0.504298 429.929 -50.8975 0.504298 429.929
2008 1 -52.5292 0.464628 431.864 -52.5292 0.464628 431.864
2006 1 -54.1601 0.424744 433.8 -54.1601 0.424744 433.8
1458 1 -38.3604 0.608042 424.684 -38.3604 0.608042 424.684
1743 1 -39.9949 0.569728 426.617 -39.9949 0.569728 426.617
1740 1 -41.6288 0.531052 428.55 -41.6288 0.531052 428.55
2026 1 -43.262 0.492009 430.484 -43.262 0.492009 430.484
2022 1 -44.8944 0.452615 432.419 -44.8944 0.452615 432.419
2019 1 -46.5261 0.412912 434.353 -46.5261 0.412912 434.353
2309 1 -45.8848 1.10106 436.797 -45.8848 1.10106 436.797
1137 1 -56.5546 3.65243 420.625 -56.5546 3.65243 420.625
1421 1 -58.1872 3.61355 422.56 -58.1872 3.61355 422.56
1439 1 -48.9136 3.63488 421.177 -48.9136 3.63488 421.177
1435 1 -50.5473 3.59642 423.111 -50.5473 3.59642 423.111
1432 1 -52.1804 3.5576 425.046 -52.1804 3.5576 425.046
1719 1 -53.813 3.51842 426.981 -53.813 3.51842 426.981
1716 1 -55.4449 3.47891 428.916 -55.4449 3.47891 428.916
2001 1 -57.0763 3.43913 430.852 -57.0763 3.43913 430.852
1998 1 -58.7072 3.39917 432.789 -58.7072 3.39917 432.789
2323 1 -37.4385 3.32629 436.388 -37.4385 3.32629 436.388
1453 1 -41.2734 3.61944 421.733 -41.2734 3.61944 421.733
1450 1 -42.9078 3.58119 423.666 -42.9078 3.58119 423.666
1446 1 -44.5418 3.54266 425.6 -44.5418 3.54266 425.6
1732 1 -46.1752 3.50381 427.534 -46.1752 3.50381 427.534
1729 1 -47.808 3.46463 429.468 -47.808 3.46463 429.468
2014 1 -49.4401 3.42513 431.403 -49.4401 3.42513 431.403
2011 1 -51.0715 3.38536 433.339 -51.0715 3.38536 433.339
1745 1 -38.5388 3.49182 428.093 -38.5388 3.49182 428.093
1742 1 -40.1727 3.45311 430.026 -40.1727 3.45311 430.026
2028 1 -41.8058 3.414 431.96 -41.8058 3.414 431.96
2025 1 -43.438 3.37453 433.894 -43.438 3.37453 433.894
1427 1 -55.0964 2.1449 422.098 -55.0964 2.1449 422.098
1424 1 -56.729 2.10589 424.033 -56.729 2.10589 424.033
1711 1 -58.3611 2.06649 425.969 -58.3611 2.06649 425.969
2322 1 -38.2545 1.09281 437.355 -38.2545 1.09281 437.355
1750 1 -35.4485 2.02496 427.637 -35.4485 2.02496 427.637
1155 1 -45.8219 2.16633 420.717 -45.8219 2.16633 420.717
1441 1 -47.456 2.12802 422.651 -47.456 2.12802 422.651
1438 1 -49.0896 2.08943 424.585 -49.0896 2.08943 424.585
1725 1 -50.7227 2.05051 426.52 -50.7227 2.05051 426.52
1722 1 -52.3551 2.01123 428.455 -52.3551 2.01123 428.455
1718 1 -53.987 1.97165 430.39 -53.987 1.97165 430.39
2003 1 -55.6182 1.93183 432.326 -55.6182 1.93183 432.326
2000 1 -57.2489 1.89186 434.263 -57.2489 1.89186 434.263
1459 1 -38.182 2.15162 421.276 -38.182 2.15162 421.276
1455 1 -39.8167 2.11362 423.208 -39.8167 2.11362 423.208
1452 1 -41.4512 2.07533 425.141 -41.4512 2.07533 425.141
1737 1 -43.0851 2.03671 427.075 -43.0851 2.03671 427.075
1735 1 -44.7185 1.99775 429.009 -44.7185 1.99775 429.009
2020 1 -46.3511 1.95845 430.943 -46.3511 1.95845 430.943
2017 1 -47.983 1.91884 432.878 -47.983 1.91884 432.878
2034 1 -38.7168 1.94793 431.502 -38.7168 1.94793 431.502
2031 1 -40.3498 1.90877 433.436 -40.3498 1.90877 433.436
2029 1 -41.1659 4.10278 434.403 -41.1659 4.10278 434.403
1146 1 -51.1884 2.90911 420.67 -51.1884 2.90911 420.67
1431 1 -52.8218 2.87059 422.604 -52.8218 2.87059 422.604
1428 1 -54.4547 2.83169 424.539 -54.4547 2.83169 424.539
1715 1 -56.087 2.7924 426.475 -56.087 2.7924 426.475
1712 1 -57.7188 2.75278 428.411 -57.7188 2.75278 428.411
1708 1 -59.3501 2.71292 430.347 -59.3501 2.71292 430.347
1747 1 -37.083 1.98666 429.569 -37.083 1.98666 429.569
1449 1 -43.5475 2.89273 421.224 -43.5475 2.89273 421.224
1445 1 -45.1818 2.85443 423.158 -45.1818 2.85443 423.158
1442 1 -46.8156 2.81586 425.092 -46.8156 2.81586 425.092
1728 1 -48.4488 2.77698 427.026 -48.4488 2.77698 427.026
1726 1 -50.0815 2.73775 428.961 -50.0815 2.73775 428.961
2010 1 -51.7134 2.69822 430.897 -51.7134 2.69822 430.897
2007 1 -53.3447 2.65843 432.832 -53.3447 2.65843 432.832
1456 1 -39.1777 2.80266 425.651 -39.1777 2.80266 425.651
1741 1 -40.8119 2.76416 427.584 -40.8119 2.76416 427.584
1738 1 -42.4455 2.7253 429.517 -42.4455 2.7253 429.517
2024 1 -44.0783 2.68608 431.451 -44.0783 2.68608 431.451
2021 1 -45.7104 2.64653 433.386 -45.7104 2.64653 433.386
2035 1 -38.0778 2.63711 433.945 -38.0778 2.63711 433.945
1754 1 -33.8134 2.06281 425.705 -33.8134 2.06281 425.705
1423 1 -57.371 1.41932 421.592 -57.371 1.41932 421.592
1420 1 -59.0033 1.3802 423.527 -59.0033 1.3802 423.527
2044 1 -32.717 1.89958 433.999 -32.717 1.89958 433.999
1437 1 -49.7305 1.40197 422.144 -49.7305 1.40197 422.144
1434 1 -51.3639 1.36333 424.078 -51.3639 1.36333 424.078
1721 1 -52.9968 1.32433 426.013 -52.9968 1.32433 426.013
1717 1 -54.629 1.28498 427.949 -54.629 1.28498 427.949
1714 1 -56.2607 1.24532 429.884 -56.2607 1.24532 429.884
1999 1 -57.8918 1.20544 431.821 -57.8918 1.20544 431.821
1997 1 -59.5225 1.16543 433.757 -59.5225 1.16543 433.757
1164 1 -40.456 1.42475 420.766 -40.456 1.42475 420.766
1451 1 -42.0906 1.38662 422.699 -42.0906 1.38662 422.699
1448 1 -43.7248 1.34823 424.633 -43.7248 1.34823 424.633
1734 1 -45.3586 1.30955 426.567 -45.3586 1.30955 426.567
1731 1 -46.9917 1.27053 428.501 -46.9917 1.27053 428.501
2016 1 -48.6242 1.23119 430.436 -48.6242 1.23119 430.436
2012 1 -50.2559 1.19155 432.371 -50.2559 1.19155 432.371
2009 1 -51.887 1.15167 434.307 -51.887 1.15167 434.307
1746 1 -37.7216 1.2973 427.127 -37.7216 1.2973 427.127
1744 1 -39.3558 1.25879 429.059 -39.3558 1.25879 429.059
2030 1 -40.9893 1.21987 430.993 -40.9893 1.21987 430.993
2027 1 -42.622 1.18058 432.927 -42.622 1.18058 432.927
2325 1 -36.6223 1.13224 435.422 -36.6223 1.13224 435.422
1749 1 -36.2658 4.21959 428.603 -36.2658 4.21959 428.603
1425 1 -55.9128 4.33918 423.066 -55.9128 4.33918 423.066
1736 1 -43.9019 4.231 428.042 -43.9019 4.231 428.042
1142 1 -53.4632 2.18349 420.164 -53.4632 2.18349 420.164
1720 1 -53.1711 4.2052 429.422 -53.1711 4.2052 429.422
2005 1 -54.8026 4.16549 431.358 -54.8026 4.16549 431.358
2002 1 -56.4336 4.12558 433.294 -56.4336 4.12558 433.294
1169 1 -37.3645 4.38423 420.31 -37.3645 4.38423 420.31
1723 1 -51.539 4.24464 427.487 -51.539 4.24464 427.487
1440 1 -48.2729 4.3225 423.618 -48.2729 4.3225 423.618
1733 1 -45.5349 4.19187 429.976 -45.5349 4.19187 429.976
2018 1 -47.1671 4.15241 431.911 -47.1671 4.15241 431.911
2015 1 -48.7986 4.11267 433.846 -48.7986 4.11267 433.846
2036 1 -37.9 4.18107 430.536 -37.9 4.18107 430.536
2032 1 -39.5334 4.14213 432.469 -39.5334 4.14213 432.469
2326 1 -35.9832 1.8215 437.865 -35.9832 1.8215 437.865
1752 1 -34.631 4.25766 426.671 -34.631 4.25766 426.671
1457 1 -38.9994 4.34638 422.242 -38.9994 4.34638 422.242
2043 1 -33.3549 1.20977 431.556 -33.3549 1.20977 431.556
2286 1 -58.8791 1.85184 436.199 -58.8791 1.85184 436.199
2319 1 -39.8855 1.05306 439.29 -39.8855 1.05306 439.29
1436 1 -49.9062 4.28374 425.552 -49.9062 4.28374 425.552
1422 1 -57.5451 4.29997 425.001 -57.5451 4.29997 425.001
1173 1 -35.0903 0.683607 420.82 -35.0903 0.683607 420.82
2293 1 -55.1471 1.07157 438.179 -55.1471 1.07157 438.179
2289 1 -57.4204 0.344709 437.673 -57.4204 0.344709 437.673
2295 1 -53.6887 3.99247 439.654 -53.6887 3.99247 439.654
1465 1 -34.4517 1.37312 423.263 -34.4517 1.37312 423.263
2315 1 -42.1567 0.324336 438.781 -42.1567 0.324336 438.781
2331 1 -33.534 4.09397 434.965 -33.534 4.09397 434.965
2297 1 -52.8741 1.7988 438.686 -52.8741 1.7988 438.686
2324 1 -36.799 4.01544 438.832 -36.799 4.01544 438.832
2306 1 -47.5148 1.06097 438.732 -47.5148 1.06097 438.732
2285 1 -59.0498 0.304763 439.61 -59.0498 0.304763 439.61
1462 1 -36.0869 1.33541 425.194 -36.0869 1.33541 425.194
1751 1 -34.8103 2.71461 430.079 -34.8103 2.71461 430.079
2329 1 -34.3506 1.86078 435.932 -34.3506 1.86078 435.932
2042 1 -34.1721 3.4043 432.522 -34.1721 3.4043 432.522
2041 1 -34.9891 1.17125 433.488 -34.9891 1.17125 433.488
2593 1 -48.3295 3.25461 439.7 -48.3295 3.25461 439.7
2328 1 -34.528 0.316785 439.342 -34.528 0.316785 439.342
2301 1 -50.6016 2.52649 439.193 -50.6016 2.52649 439.193
1466 1 -33.634 3.60554 422.297 -33.634 3.60554 422.297
2298 1 -52.7022 3.3454 435.275 -52.7022 3.3454 435.275
2321 1 -39.0701 3.28669 438.323 -39.0701 3.28669 438.323
2313 1 -43.613 1.82944 437.305 -43.613 1.82944 437.305
2294 1 -54.3323 3.30533 437.211 -54.3323 3.30533 437.211
2304 1 -48.972 2.56665 437.257 -48.972 2.56665 437.257
2300 1 -51.2445 1.83893 436.749 -51.2445 1.83893 436.749
2290 1 -56.6055 2.57845 436.705 -56.6055 2.57845 436.705
2318 1 -40.5259 0.364177 436.846 -40.5259 0.364177 436.846
2327 1 -35.167 4.05492 436.898 -35.167 4.05492 436.898
2004 1 -54.9754 2.61848 434.769 -54.9754 2.61848 434.769
2013 1 -49.6141 1.87898 434.814 -49.6141 1.87898 434.814
2288 1 -58.064 4.08557 435.231 -58.064 4.08557 435.231
2037 1 -37.2612 0.442927 432.978 -37.2612 0.442927 432.978
1739 1 -42.2682 4.26979 426.108 -42.2682 4.26979 426.108
1753 1 -33.9929 0.519955 429.114 -33.9929 0.519955 429.114
2307 1 -47.3416 2.60669 435.321 -47.3416 2.60669 435.321
2314 1 -42.7975 4.06311 436.337 -42.7975 4.06311 436.337
2040 1 -35.6275 0.48168 431.046 -35.6275 0.48168 431.046
2320 1 -39.7101 2.59772 435.879 -39.7101 2.59772 435.879
2292 1 -55.7905 0.384737 435.737 -55.7905 0.384737 435.737
2311 1 -45.0694 3.33476 435.829 -45.0694 3.33476 435.829
2302 1 -50.4294 4.0727 435.782 -50.4294 4.0727 435.782
2296 1 -53.5173 1.11164 436.243 -53.5173 1.11164 436.243
1463 1 -35.908 2.87858 421.786 -35.908 2.87858 421.786
2287 1 -58.2352 2.53845 438.641 -58.2352 2.53845 438.641
2291 1 -55.9618 3.26527 439.147 -55.9618 3.26527 439.147
2317 1 -41.3414 2.55801 437.814 -41.3414 2.55801 437.814
2038 1 -36.4444 2.67609 432.012 -36.4444 2.67609 432.012
2305 1 -48.1569 0.372962 436.289 -48.1569 0.372962 436.289
2332 1 -32.8957 0.356128 437.408 -32.8957 0.356128 437.408
1709 1 -59.177 4.26038 426.937 -59.177 4.26038 426.937
1468 1 -32.8162 1.41041 421.332 -32.8162 1.41041 421.332
1454 1 -40.634 4.30824 424.175 -40.634 4.30824 424.175
1429 1 -54.2799 4.37797 421.131 -54.2799 4.37797 421.131
1133 1 -58.8293 2.92708 420.118 -58.8293 2.92708 420.118
1175 1 -34.2727 2.916 419.855 -34.2727 2.916 419.855
2616 1 -35.5185 0.966079 443.721 -35.5185 0.966079 443.721
2901 1 -37.1472 0.926079 445.656 -37.1472 0.926079 445.656
2907 1 -34.063 3.88875 445.198 -34.063 3.88875 445.198
3194 1 -35.0484 0.11019 449.579 -35.0484 0.11019 449.579
2587 1 -51.4161 0.292664 440.161 -51.4161 0.292664 440.161
2597 1 -46.0579 3.98308 440.208 -46.0579 3.98308 440.208
2584 1 -53.0447 0.252509 442.097 -53.0447 0.252509 442.097
2581 1 -54.6726 0.212493 444.033 -54.6726 0.212493 444.033
2868 1 -56.3 0.172736 445.97 -56.3 0.172736 445.97
2865 1 -57.9271 0.133368 447.906 -57.9271 0.133368 447.906
2601 1 -43.7865 0.284314 440.717 -43.7865 0.284314 440.717
2598 1 -45.4154 0.244213 442.653 -45.4154 0.244213 442.653
2885 1 -47.0432 0.20413 444.589 -47.0432 0.20413 444.589
2882 1 -48.6702 0.164154 446.525 -48.6702 0.164154 446.525
2879 1 -50.2964 0.124376 448.462 -50.2964 0.124376 448.462
2612 1 -37.7888 0.237142 443.211 -37.7888 0.237142 443.211
2898 1 -39.4173 0.197139 445.147 -39.4173 0.197139 445.147
2895 1 -41.0447 0.157192 447.083 -41.0447 0.157192 447.083
3180 1 -42.671 0.117402 449.02 -42.671 0.117402 449.02
2576 1 -57.5907 3.22532 441.084 -57.5907 3.22532 441.084
2574 1 -59.2193 3.18559 443.021 -59.2193 3.18559 443.021
2589 1 -49.9583 3.21441 441.636 -49.9583 3.21441 441.636
2586 1 -51.5864 3.17424 443.573 -51.5864 3.17424 443.573
2874 1 -53.2137 3.13422 445.509 -53.2137 3.13422 445.509
2871 1 -54.8405 3.09446 447.445 -54.8405 3.09446 447.445
3155 1 -56.4668 3.05507 449.381 -56.4668 3.05507 449.381
2607 1 -40.7006 3.24683 440.258 -40.7006 3.24683 440.258
2604 1 -42.3301 3.20681 442.193 -42.3301 3.20681 442.193
2600 1 -43.9585 3.16677 444.129 -43.9585 3.16677 444.129
2887 1 -45.5859 3.12679 446.066 -45.5859 3.12679 446.066
2884 1 -47.2124 3.08699 448.002 -47.2124 3.08699 448.002
3168 1 -48.838 3.04744 449.939 -48.838 3.04744 449.939
2900 1 -37.961 3.11982 446.624 -37.961 3.11982 446.624
2897 1 -39.5879 3.07994 448.561 -39.5879 3.07994 448.561
2582 1 -54.5032 1.75869 440.622 -54.5032 1.75869 440.622
2579 1 -56.1317 1.71871 442.559 -56.1317 1.71871 442.559
2866 1 -57.7597 1.67898 444.495 -57.7597 1.67898 444.495
2578 1 -56.7763 1.03155 440.116 -56.7763 1.03155 440.116
2595 1 -46.8724 1.74927 441.176 -46.8724 1.74927 441.176
2592 1 -48.5007 1.70911 443.112 -48.5007 1.70911 443.112
2880 1 -50.1282 1.669 445.049 -50.1282 1.669 445.049
2877 1 -51.755 1.62905 446.985 -51.755 1.62905 446.985
2873 1 -53.3811 1.58936 448.921 -53.3811 1.58936 448.921
2609 1 -39.2447 1.74196 441.734 -39.2447 1.74196 441.734
2606 1 -40.8737 1.70195 443.67 -40.8737 1.70195 443.67
2892 1 -42.5016 1.66195 445.606 -42.5016 1.66195 445.606
2890 1 -44.1285 1.62208 447.543 -44.1285 1.62208 447.543
3174 1 -45.7544 1.58241 449.48 -45.7544 1.58241 449.48
2618 1 -34.7037 3.19978 442.753 -34.7037 3.19978 442.753
2585 1 -52.2305 2.4863 441.129 -52.2305 2.4863 441.129
2583 1 -53.8587 2.4462 443.065 -53.8587 2.4462 443.065
2870 1 -55.4864 2.4063 445.002 -55.4864 2.4063 445.002
2867 1 -57.1136 2.36672 446.938 -57.1136 2.36672 446.938
2863 1 -58.7405 2.3276 448.874 -58.7405 2.3276 448.874
2599 1 -44.6011 2.47799 441.685 -44.6011 2.47799 441.685
2596 1 -46.2294 2.43789 443.621 -46.2294 2.43789 443.621
2883 1 -47.8568 2.39785 445.557 -47.8568 2.39785 445.557
2881 1 -49.4834 2.35796 447.494 -49.4834 2.35796 447.494
3164 1 -51.1093 2.31832 449.43 -51.1093 2.31832 449.43
2610 1 -38.6032 2.43087 444.179 -38.6032 2.43087 444.179
2896 1 -40.2312 2.39088 446.115 -40.2312 2.39088 446.115
2893 1 -41.858 2.351 448.052 -41.858 2.351 448.052
3178 1 -43.4838 2.31131 449.989 -43.4838 2.31131 449.989
2575 1 -58.4051 0.991696 442.052 -58.4051 0.991696 442.052
2591 1 -49.144 1.02078 440.668 -49.144 1.02078 440.668
2588 1 -50.7724 0.980586 442.604 -50.7724 0.980586 442.604
2876 1 -52.4001 0.940481 444.541 -52.4001 0.940481 444.541
2872 1 -54.0272 0.900572 446.477 -54.0272 0.900572 446.477
2869 1 -55.6537 0.860982 448.413 -55.6537 0.860982 448.413
2605 1 -41.5155 1.01311 441.225 -41.5155 1.01311 441.225
2602 1 -43.1444 0.973063 443.161 -43.1444 0.973063 443.161
2889 1 -44.7723 0.93304 445.097 -44.7723 0.93304 445.097
2886 1 -46.3992 0.893137 447.034 -46.3992 0.893137 447.034
3170 1 -48.0253 0.853446 448.971 -48.0253 0.853446 448.971
2899 1 -38.7746 0.886132 447.592 -38.7746 0.886132 447.592
3184 1 -40.4008 0.846349 449.529 -40.4008 0.846349 449.529
2580 1 -55.3175 3.95241 441.59 -55.3175 3.95241 441.59
2577 1 -56.9457 3.91254 443.527 -56.9457 3.91254 443.527
2864 1 -58.5735 3.87297 445.463 -58.5735 3.87297 445.463
2862 1 -59.3873 1.63962 446.432 -59.3873 1.63962 446.432
2594 1 -47.6866 3.94291 442.144 -47.6866 3.94291 442.144
2590 1 -49.3146 3.90277 444.08 -49.3146 3.90277 444.08
2878 1 -50.9417 3.86273 446.017 -50.9417 3.86273 446.017
2875 1 -52.5681 3.82289 447.953 -52.5681 3.82289 447.953
3159 1 -54.1939 3.78337 449.889 -54.1939 3.78337 449.889
2611 1 -38.4297 3.97565 440.767 -38.4297 3.97565 440.767
2608 1 -40.0593 3.93569 442.702 -40.0593 3.93569 442.702
2894 1 -41.6878 3.89567 444.638 -41.6878 3.89567 444.638
2891 1 -43.3152 3.85572 446.574 -43.3152 3.85572 446.574
2888 1 -44.9416 3.81594 448.511 -44.9416 3.81594 448.511
2904 1 -35.6912 3.84873 447.133 -35.6912 3.84873 447.133
2621 1 -33.073 3.23956 440.819 -33.073 3.23956 440.819
2617 1 -35.3437 2.51069 440.309 -35.3437 2.51069 440.309
2614 1 -36.9741 2.47085 442.244 -36.9741 2.47085 442.244
2908 1 -33.4215 0.150159 447.643 -33.4215 0.150159 447.643
2619 1 -33.8885 1.00598 441.786 -33.8885 1.00598 441.786
2906 1 -34.2351 2.34387 448.611 -34.2351 2.34387 448.611
2905 1 -34.8773 1.65501 446.165 -34.8773 1.65501 446.165
2620 1 -33.2484 1.69503 444.23 -33.2484 1.69503 444.23
3190 1 -37.318 3.80884 449.07 -37.318 3.80884 449.07
2902 1 -36.5047 1.61503 448.102 -36.5047 1.61503 448.102
2903 1 -36.333 3.15981 444.688 -36.333 3.15981 444.688
2615 1 -36.159 0.277074 441.276 -36.159 0.277074 441.276
2909 1 -32.6076 2.38393 446.675 -32.6076 2.38393 446.675
14 1 -51.6873 0.412977 398.861 -51.6873 4.84043 398.861
7 1 -56.0951 3.36779 397.983 -56.0951 3.36779 397.983
25 1 -43.9864 0.41234 399.337 -43.9864 4.83979 399.337
38 1 -36.2746 0.332105 399.831 -36.2746 4.75956 399.831
23 1 -45.6096 0.355802 401.26 -45.6096 4.78325 401.26
287 1 -48.8617 0.270406 405.108 -48.8617 4.69786 405.108
878 1 -40.1014 0.0853164 413.949 -40.1014 4.51277 413.949
579 1 -46.1109 0.140739 411.46 -46.1109 4.56819 411.46
585 1 -42.8442 0.215673 407.591 -42.8442 4.64313 407.591
290 1 -47.2368 0.31217 403.179 -47.2368 4.73962 403.179
11 1 -53.2537 0.35046 400.741 -53.2537 4.77791 400.741
595 1 -36.8327 0.16 410.084 -36.8327 4.58745 410.084
1134 1 -58.6549 0.045951 416.71 -58.6549 4.4734 416.71
283 1 -50.4903 0.231577 407.04 -50.4903 4.65903 407.04
582 1 -44.4775 0.178376 409.526 -44.4775 4.60583 409.526
276 1 -54.8859 0.329102 402.631 -54.8859 4.75656 402.631
569 1 -52.1211 0.194284 408.973 -52.1211 4.62174 408.973
847 1 -57.0215 0.0834438 414.776 -57.0215 4.5109 414.776
272 1 -56.503 0.293341 404.559 -56.503 4.72079 404.559
3 1 -57.9068 3.37095 399.697 -57.9068 3.37095 399.697
35 1 -37.9301 0.316301 401.777 -37.9301 4.74375 401.777
598 1 -35.1976 0.196489 408.153 -35.1976 4.62394 408.153
850 1 -55.3875 0.120253 412.842 -55.3875 4.54771 412.842
304 1 -39.5745 0.288784 403.719 -39.5745 4.71624 403.719