ITEM: TIMESTEP
0
ITEM: NUMBER OF ATOMS
4630
ITEM: BOX BOUNDS xy xz yz pp pp pp
-6.1240988501799997e+01 1.0426002035000000e+02 0.0000000000000000e+00
0.0000000000000000e+00 4.4274527100805940e+00 0.0000000000000000e+00
3.8000000000000000e+02 5.0000000000000000e+02 0.0000000000000000e+00
ITEM: ATOMS id type x y z xu yu zu
27 1 -44.1405 2.47837 398.912 -44.1405 2.47837 398.912
36 1 -38.6611 1.73289 398.965 -38.6611 1.73289 398.965
31 1 -41.7698 3.15801 399.35 -41.7698 3.15801 399.35
22 1 -47.2598 3.91026 399.329 -47.2598 3.91026 399.329
20 1 -48.0836 1.69302 400.199 -48.0836 1.69302 400.199
40 1 -36.2935 2.41487 399.408 -36.2935 2.41487 399.408
34 1 -39.4648 3.93307 399.824 -39.4648 3.93307 399.824
17 1 -50.3944 0.934601 399.734 -50.3944 0.934601 399.734
9 1 -55.8267 1.61548 399.654 -55.8267 1.61548 399.654
43 1 -33.9909 3.191 399.885 -33.9909 3.191 399.885
12 1 -53.5555 2.45149 400.156 -53.5555 2.45149 400.156
5 1 -58.1897 0.977038 399.201 -58.1897 0.977038 399.201
29 1 -42.6083 0.931428 400.22 -42.6083 0.931428 400.22
853 1 -55.1907 2.94514 414.569 -55.1907 2.94514 414.569
873 1 -44.2642 1.46544 414.677 -44.2642 1.46544 414.677
865 1 -48.2536 0.706401 416.082 -48.2536 0.706401 416.082
1174 1 -35.8526 2.15397 417.655 -35.8526 2.15397 417.655
883 1 -38.8002 0.724867 414.733 -38.8002 0.724867 414.733
863 1 -49.7282 2.20591 414.622 -49.7282 2.20591 414.622
315 1 -34.1969 1.63805 403.225 -34.1969 1.63805 403.225
307 1 -39.0315 3.08277 405.579 -39.0315 3.08277 405.579
1150 1 -49.9297 0.676088 417.993 -49.9297 0.676088 417.993
855 1 -53.7163 1.4459 416.029 -53.7163 1.4459 416.029
310 1 -37.3531 3.11155 403.674 -37.3531 3.11155 403.674
871 1 -45.1026 3.66429 415.632 -45.1026 3.66429 415.632
16 1 -51.2237 3.13604 400.609 -51.2237 3.13604 400.609
309 1 -37.5552 1.58299 407.038 -37.5552 1.58299 407.038
1156 1 -46.7792 3.63432 417.542 -46.7792 3.63432 417.542
867 1 -47.4154 2.93517 415.127 -47.4154 2.93517 415.127
1159 1 -44.4668 4.36362 418.047 -44.4668 4.36362 418.047
1168 1 -39.0037 3.62357 418.103 -39.0037 3.62357 418.103
1170 1 -38.165 1.42463 417.148 -38.165 1.42463 417.148
594 1 -38.3942 3.7824 407.993 -38.3942 3.7824 407.993
37 1 -37.9854 2.40577 401.274 -37.9854 2.40577 401.274
851 1 -56.0285 0.716314 415.524 -56.0285 0.716314 415.524
857 1 -52.8785 3.67484 415.073 -52.8785 3.67484 415.073
592 1 -39.2329 1.55409 408.947 -39.2329 1.55409 408.947
849 1 -56.8663 2.91492 416.48 -56.8663 2.91492 416.48
877 1 -41.9515 2.19459 415.182 -41.9515 2.19459 415.182
1143 1 -54.5542 3.64441 416.984 -54.5542 3.64441 416.984
1140 1 -56.2298 3.6139 418.895 -56.2298 3.6139 418.895
845 1 -59.1786 2.18577 415.976 -59.1786 2.18577 415.976
875 1 -42.79 4.39347 416.137 -42.79 4.39347 416.137
886 1 -37.1227 0.754259 412.824 -37.1227 0.754259 412.824
891 1 -33.9708 3.71141 412.376 -33.9708 3.71141 412.376
39 1 -36.5183 0.908622 402.714 -36.5183 0.908622 402.714
1177 1 -34.3791 0.654935 419.116 -34.3791 0.654935 419.116
1167 1 -39.8423 1.395 419.058 -39.8423 1.395 419.058
8 1 -56.6897 3.87941 400.633 -56.6897 3.87941 400.633
869 1 -45.941 1.43562 416.587 -45.941 1.43562 416.587
1136 1 -58.5418 2.8845 418.391 -58.5418 2.8845 418.391
1162 1 -42.9929 2.86431 419.507 -42.9929 2.86431 419.507
15 1 -52.0716 0.922914 401.607 -52.0716 0.922914 401.607
280 1 -53.7481 0.896632 403.508 -53.7481 0.896632 403.508
277 1 -55.4294 0.878544 405.411 -55.4294 0.878544 405.411
273 1 -57.102 0.848487 407.323 -57.102 0.848487 407.323
560 1 -58.7766 0.818424 409.235 -58.7766 0.818424 409.235
557 1 -60.4524 0.788685 411.146 -60.4524 0.788685 411.146
26 1 -44.2935 0.92357 402.141 -44.2935 0.92357 402.141
294 1 -45.9739 0.898497 404.063 -45.9739 0.898497 404.063
291 1 -47.6504 0.867016 405.974 -47.6504 0.867016 405.974
576 1 -49.3261 0.835962 407.883 -49.3261 0.835962 407.883
573 1 -51.0021 0.806575 409.792 -51.0021 0.806575 409.792
570 1 -52.6775 0.776722 411.702 -52.6775 0.776722 411.702
854 1 -54.3529 0.746499 413.613 -54.3529 0.746499 413.613
305 1 -39.8695 0.854747 406.532 -39.8695 0.854747 406.532
589 1 -41.5465 0.825291 408.442 -41.5465 0.825291 408.442
586 1 -43.2234 0.795686 410.352 -43.2234 0.795686 410.352
872 1 -44.9003 0.766077 412.262 -44.9003 0.766077 412.262
599 1 -35.4449 0.783366 410.915 -35.4449 0.783366 410.915
1132 1 -60.854 2.15534 417.887 -60.854 2.15534 417.887
4 1 -58.391 3.89105 402.477 -58.391 3.89105 402.477
268 1 -60.0501 3.84979 404.406 -60.0501 3.84979 404.406
1152 1 -49.0917 2.905 417.037 -49.0917 2.905 417.037
19 1 -48.9332 3.87942 401.157 -48.9332 3.87942 401.157
286 1 -50.6013 3.85062 403.042 -50.6013 3.85062 403.042
282 1 -52.2734 3.82577 404.959 -52.2734 3.82577 404.959
279 1 -53.9517 3.80298 406.869 -53.9517 3.80298 406.869
565 1 -55.6264 3.77486 408.781 -55.6264 3.77486 408.781
563 1 -57.3016 3.74533 410.694 -57.3016 3.74533 410.694
846 1 -58.9774 3.71577 412.605 -58.9774 3.71577 412.605
32 1 -41.1446 3.88203 401.717 -41.1446 3.88203 401.717
300 1 -42.8229 3.85468 403.617 -42.8229 3.85468 403.617
297 1 -44.4987 3.82506 405.524 -44.4987 3.82506 405.524
293 1 -46.1745 3.79525 407.434 -46.1745 3.79525 407.434
578 1 -47.8507 3.76513 409.343 -47.8507 3.76513 409.343
575 1 -49.527 3.73536 411.253 -49.527 3.73536 411.253
860 1 -51.2029 3.70525 413.163 -51.2029 3.70525 413.163
591 1 -40.0716 3.7531 409.902 -40.0716 3.7531 409.902
588 1 -41.7487 3.72359 411.812 -41.7487 3.72359 411.812
874 1 -43.4258 3.69399 413.722 -43.4258 3.69399 413.722
10 1 -55.2251 2.3868 402.055 -55.2251 2.3868 402.055
274 1 -56.9105 2.38369 403.947 -56.9105 2.38369 403.947
271 1 -58.5773 2.34967 405.864 -58.5773 2.34967 405.864
558 1 -60.2516 2.31895 407.776 -60.2516 2.31895 407.776
24 1 -45.7929 2.43001 400.734 -45.7929 2.43001 400.734
21 1 -47.46 2.39709 402.609 -47.46 2.39709 402.609
288 1 -49.1274 2.36452 404.516 -49.1274 2.36452 404.516
285 1 -50.8009 2.33259 406.424 -50.8009 2.33259 406.424
571 1 -52.4771 2.30472 408.332 -52.4771 2.30472 408.332
568 1 -54.152 2.27554 410.242 -54.152 2.27554 410.242
852 1 -55.8272 2.24567 412.154 -55.8272 2.24567 412.154
848 1 -57.5029 2.21584 414.065 -57.5029 2.21584 414.065
306 1 -39.6683 2.38115 403.164 -39.6683 2.38115 403.164
302 1 -41.3458 2.35377 405.07 -41.3458 2.35377 405.07
299 1 -43.022 2.32475 406.981 -43.022 2.32475 406.981
583 1 -44.6985 2.29532 408.892 -44.6985 2.29532 408.892
581 1 -46.3753 2.26565 410.802 -46.3753 2.26565 410.802
866 1 -48.0519 2.23596 412.712 -48.0519 2.23596 412.712
880 1 -40.2743 2.22419 413.272 -40.2743 2.22419 413.272
312 1 -35.8769 1.61119 405.129 -35.8769 1.61119 405.129
2 1 -59.8839 0.987998 401.045 -59.8839 0.987998 401.045
13 1 -52.9019 3.11952 402.536 -52.9019 3.11952 402.536
278 1 -54.5882 3.1018 404.452 -54.5882 3.1018 404.452
275 1 -56.2651 3.07762 406.364 -56.2651 3.07762 406.364
562 1 -57.9387 3.04698 408.279 -57.9387 3.04698 408.279
559 1 -59.6144 3.01729 410.191 -59.6144 3.01729 410.191
1166 1 -40.6808 3.59383 420.013 -40.6808 3.59383 420.013
889 1 -34.8098 1.48323 413.331 -34.8098 1.48323 413.331
28 1 -43.459 3.15052 401.218 -43.459 3.15052 401.218
296 1 -45.1383 3.12526 403.111 -45.1383 3.12526 403.111
292 1 -46.8133 3.09664 405.02 -46.8133 3.09664 405.02
289 1 -48.488 3.06523 406.929 -48.488 3.06523 406.929
574 1 -50.1641 3.03507 408.838 -50.1641 3.03507 408.838
572 1 -51.8399 3.00553 410.747 -51.8399 3.00553 410.747
856 1 -53.5151 2.97536 412.658 -53.5151 2.97536 412.658
303 1 -40.7084 3.05362 407.487 -40.7084 3.05362 407.487
587 1 -42.3851 3.02416 409.396 -42.3851 3.02416 409.396
584 1 -44.0619 2.99459 411.307 -44.0619 2.99459 411.307
870 1 -45.7388 2.96498 413.217 -45.7388 2.96498 413.217
6 1 -57.5489 1.68554 401.523 -57.5489 1.68554 401.523
270 1 -59.2161 1.65399 403.443 -59.2161 1.65399 403.443
267 1 -60.8873 1.62012 405.361 -60.8873 1.62012 405.361
890 1 -34.1749 2.18319 415.746 -34.1749 2.18319 415.746
18 1 -49.7611 1.65228 402.101 -49.7611 1.65228 402.101
284 1 -51.4345 1.62583 404.009 -51.4345 1.62583 404.009
281 1 -53.1132 1.60162 405.917 -53.1132 1.60162 405.917
567 1 -54.7895 1.5759 407.826 -54.7895 1.5759 407.826
564 1 -56.4639 1.54639 409.738 -56.4639 1.54639 409.738
561 1 -58.1395 1.51688 411.65 -58.1395 1.51688 411.65
844 1 -59.8154 1.48712 413.561 -59.8154 1.48712 413.561
33 1 -40.3201 1.68366 400.782 -40.3201 1.68366 400.782
30 1 -41.9903 1.65172 402.655 -41.9903 1.65172 402.655
298 1 -43.6611 1.62549 404.566 -43.6611 1.62549 404.566
295 1 -45.3365 1.5965 406.478 -45.3365 1.5965 406.478
580 1 -47.0125 1.56634 408.388 -47.0125 1.56634 408.388
577 1 -48.6889 1.53646 410.298 -48.6889 1.53646 410.298
862 1 -50.365 1.50661 412.208 -50.365 1.50661 412.208
590 1 -40.9101 1.52466 410.857 -40.9101 1.52466 410.857
876 1 -42.5872 1.49508 412.767 -42.5872 1.49508 412.767
1163 1 -42.1545 0.665548 418.552 -42.1545 0.665548 418.552
1153 1 -48.4555 3.60405 419.453 -48.4555 3.60405 419.453
311 1 -36.7155 3.81125 406.084 -36.7155 3.81125 406.084
42 1 -34.8454 0.941384 400.844 -34.8454 0.941384 400.844
1135 1 -59.3795 0.655465 419.347 -59.3795 0.655465 419.347
1171 1 -37.5301 2.1245 419.564 -37.5301 2.1245 419.564
1139 1 -57.0675 1.38485 419.851 -57.0675 1.38485 419.851
601 1 -34.6059 3.01147 409.961 -34.6059 3.01147 409.961
313 1 -35.0341 3.84 404.175 -35.0341 3.84 404.175
858 1 -52.0407 1.47632 414.118 -52.0407 1.47632 414.118
868 1 -46.5771 0.736394 414.172 -46.5771 0.736394 414.172
1147 1 -52.242 4.37402 417.489 -52.242 4.37402 417.489
843 1 -60.6532 3.6858 414.516 -60.6532 3.6858 414.516
593 1 -38.597 2.25365 411.363 -38.597 2.25365 411.363
308 1 -38.1921 0.882958 404.622 -38.1921 0.882958 404.622
861 1 -50.5661 4.40448 415.578 -50.5661 4.40448 415.578
1158 1 -45.3051 2.13488 419.002 -45.3051 2.13488 419.002
884 1 -37.9615 2.95332 413.778 -37.9615 2.95332 413.778
881 1 -39.6389 2.92383 415.687 -39.6389 2.92383 415.687
885 1 -37.3263 3.6531 416.194 -37.3263 3.6531 416.194
859 1 -51.4041 2.17554 416.533 -51.4041 2.17554 416.533
596 1 -36.9195 2.28283 409.454 -36.9195 2.28283 409.454
879 1 -40.4775 0.695297 416.642 -40.4775 0.695297 416.642
1172 1 -36.6914 4.35299 418.609 -36.6914 4.35299 418.609
1154 1 -47.6174 1.40549 418.497 -47.6174 1.40549 418.497
887 1 -36.4875 1.45405 415.239 -36.4875 1.45405 415.239
597 1 -36.2839 2.98258 411.869 -36.2839 2.98258 411.869
1161 1 -43.6284 2.16485 417.092 -43.6284 2.16485 417.092
1138 1 -57.7041 0.686016 417.436 -57.7041 0.686016 417.436
1149 1 -50.7677 2.87458 418.948 -50.7677 2.87458 418.948
41 1 -35.6719 3.13874 401.777 -35.6719 3.13874 401.777
888 1 -35.6487 3.6824 414.285 -35.6487 3.6824 414.285
1165 1 -41.316 2.89418 417.597 -41.316 2.89418 417.597
1141 1 -55.392 1.41545 417.94 -55.392 1.41545 417.94
1145 1 -53.0799 2.14502 418.444 -53.0799 2.14502 418.444
600 1 -35.2415 2.31154 407.546 -35.2415 2.31154 407.546
1148 1 -51.6056 0.645571 419.904 -51.6056 0.645571 419.904
882 1 -39.4357 0.0252114 412.317 -39.4357 4.45266 412.317
1157 1 -46.1433 4.33351 419.957 -46.1433 4.33351 419.957
1144 1 -53.9177 4.34345 419.399 -53.9177 4.34345 419.399
602 1 -33.7665 0.812035 409.007 -33.7665 0.812035 409.007
1131 1 -61.0546 0.624621 421.259 -61.0546 0.624621 421.259
1755 1 -34.1533 2.72597 428.272 -34.1533 2.72597 428.272
1460 1 -38.5724 2.79463 423.889 -38.5724 2.79463 423.889
2308 1 -47.9875 3.30934 437.771 -47.9875 3.30934 437.771
2316 1 -43.1664 1.87315 435.408 -43.1664 1.87315 435.408
2312 1 -45.6771 4.04001 438.276 -45.6771 4.04001 438.276
1464 1 -36.2607 3.52448 424.395 -36.2607 3.52448 424.395
1461 1 -37.7339 0.595847 422.934 -37.7339 0.595847 422.934
2039 1 -36.8709 3.36538 434.508 -36.8709 3.36538 434.508
2613 1 -38.7471 1.80489 439.791 -38.7471 1.80489 439.791
1467 1 -33.9491 4.25432 424.902 -33.9491 4.25432 424.902
2603 1 -44.2036 2.54136 439.737 -44.2036 2.54136 439.737
1443 1 -47.8195 4.30313 421.868 -47.8195 4.30313 421.868
1748 1 -37.9376 3.49453 426.305 -37.9376 3.49453 426.305
2023 1 -45.4769 1.14257 434.903 -45.4769 1.14257 434.903
2310 1 -46.5138 1.81061 439.232 -46.5138 1.81061 439.232
1151 1 -49.2935 1.3751 420.408 -49.2935 1.3751 420.408
2303 1 -51.1347 0.349312 438.222 -51.1347 0.349312 438.222
2299 1 -53.4454 4.04627 437.718 -53.4454 4.04627 437.718
2033 1 -40.0188 0.405588 434.958 -40.0188 0.405588 434.958
1433 1 -53.2813 0.614882 421.815 -53.2813 0.614882 421.815
1430 1 -54.9566 0.584006 423.726 -54.9566 0.584006 423.726
1426 1 -56.6315 0.552937 425.638 -56.6315 0.552937 425.638
1713 1 -58.3062 0.521691 427.55 -58.3062 0.521691 427.55
1710 1 -59.9805 0.490307 429.462 -59.9805 0.490307 429.462
2330 1 -34.7632 2.56684 438.386 -34.7632 2.56684 438.386
1160 1 -43.8312 0.635562 420.462 -43.8312 0.635562 420.462
1447 1 -45.5076 0.605313 422.373 -45.5076 0.605313 422.373
1444 1 -47.1836 0.574811 424.283 -47.1836 0.574811 424.283
1730 1 -48.8592 0.544074 426.194 -48.8592 0.544074 426.194
1727 1 -50.5343 0.513118 428.106 -50.5343 0.513118 428.106
1724 1 -52.209 0.481966 430.017 -52.209 0.481966 430.017
2008 1 -53.8834 0.450654 431.929 -53.8834 0.450654 431.929
2006 1 -55.5573 0.419229 433.841 -55.5573 0.419229 433.841
1458 1 -39.4107 0.56588 424.844 -39.4107 0.56588 424.844
1743 1 -41.0871 0.535623 426.754 -41.0871 0.535623 426.754
1740 1 -42.763 0.505085 428.664 -42.763 0.505085 428.664
2026 1 -44.4383 0.47429 430.575 -44.4383 0.47429 430.575
2022 1 -46.1132 0.443272 432.487 -46.1132 0.443272 432.487
2019 1 -47.7875 0.412071 434.398 -47.7875 0.412071 434.398
2309 1 -47.1507 1.11129 436.815 -47.1507 1.11129 436.815
1137 1 -57.9051 3.5832 420.807 -57.9051 3.5832 420.807
1421 1 -59.5802 3.55227 422.718 -59.5802 3.55227 422.718
1439 1 -50.1315 3.57355 421.363 -50.1315 3.57355 421.363
1435 1 -51.8071 3.54284 423.275 -51.8071 3.54284 423.275
1432 1 -53.4824 3.51193 425.186 -53.4824 3.51193 425.186
1719 1 -55.1573 3.48083 427.098 -55.1573 3.48083 427.098
1716 1 -56.8318 3.44955 429.01 -56.8318 3.44955 429.01
2001 1 -58.5061 3.41815 430.922 -58.5061 3.41815 430.922
1998 1 -60.18 3.38667 432.834 -60.18 3.38667 432.834
2323 1 -38.5459 3.3345 436.419 -38.5459 3.3345 436.419
1453 1 -42.3575 3.56384 421.923 -42.3575 3.56384 421.923
1450 1 -44.0339 3.53358 423.833 -44.0339 3.53358 423.833
1446 1 -45.7099 3.50307 425.744 -45.7099 3.50307 425.744
1732 1 -47.3854 3.47231 427.655 -47.3854 3.47231 427.655
1729 1 -49.0605 3.44134 429.566 -49.0605 3.44134 429.566
2014 1 -50.7351 3.41017 431.478 -50.7351 3.41017 431.478
2011 1 -52.4092 3.37884 433.389 -52.4092 3.37884 433.389
1745 1 -39.6139 3.46428 428.215 -39.6139 3.46428 428.215
1742 1 -41.2897 3.43373 430.125 -41.2897 3.43373 430.125
2028 1 -42.965 3.40292 432.036 -42.965 3.40292 432.036
2025 1 -44.6397 3.37189 433.947 -44.6397 3.37189 433.947
1427 1 -56.4308 2.08358 422.266 -56.4308 2.08358 422.266
1424 1 -58.1058 2.05257 424.178 -58.1058 2.05257 424.178
1711 1 -59.7805 2.02136 426.09 -59.7805 2.02136 426.09
2322 1 -39.3831 1.10525 437.374 -39.3831 1.10525 437.374
1750 1 -36.4646 1.99584 427.766 -36.4646 1.99584 427.766
1155 1 -46.9814 2.10463 420.912 -46.9814 2.10463 420.912
1441 1 -48.6574 2.07413 422.823 -48.6574 2.07413 422.823
1438 1 -50.3331 2.04341 424.734 -50.3331 2.04341 424.734
1725 1 -52.0083 2.01248 426.646 -52.0083 2.01248 426.646
1722 1 -53.6831 1.98134 428.558 -53.6831 1.98134 428.558
1718 1 -55.3576 1.95005 430.469 -55.3576 1.95005 430.469
2003 1 -57.0317 1.91863 432.382 -57.0317 1.91863 432.382
2000 1 -58.7055 1.88715 434.294 -58.7055 1.88715 434.294
1459 1 -39.2072 2.09478 421.473 -39.2072 2.09478 421.473
1455 1 -40.884 2.0648 423.383 -40.884 2.0648 423.383
1452 1 -42.5604 2.03454 425.293 -42.5604 2.03454 425.293
1737 1 -44.2363 2.00401 427.204 -44.2363 2.00401 427.204
1735 1 -45.9118 1.97324 429.115 -45.9118 1.97324 429.115
2020 1 -47.5867 1.94224 431.026 -47.5867 1.94224 431.026
2017 1 -49.2612 1.91105 432.938 -49.2612 1.91105 432.938
2034 1 -39.8167 1.93504 431.586 -39.8167 1.93504 431.586
2031 1 -41.4918 1.90421 433.497 -41.4918 1.90421 433.497
2029 1 -42.3292 4.10243 434.452 -42.3292 4.10243 434.452
1146 1 -52.4435 2.84397 420.859 -52.4435 2.84397 420.859
1431 1 -54.119 2.81319 422.77 -54.119 2.81319 422.77
1428 1 -55.7941 2.78222 424.682 -55.7941 2.78222 424.682
1715 1 -57.4689 2.75106 426.594 -57.4689 2.75106 426.594
1712 1 -59.1434 2.71974 428.506 -59.1434 2.71974 428.506
1708 1 -60.8176 2.68831 430.418 -60.8176 2.68831 430.418
1747 1 -38.1409 1.96559 429.676 -38.1409 1.96559 429.676
1449 1 -44.6694 2.8342 421.417 -44.6694 2.8342 421.417
1445 1 -46.3456 2.80382 423.328 -46.3456 2.80382 423.328
1442 1 -48.0214 2.7732 425.239 -48.0214 2.7732 425.239
1728 1 -49.6968 2.74235 427.15 -49.6968 2.74235 427.15
1726 1 -51.3717 2.71129 429.062 -51.3717 2.71129 429.062
2010 1 -53.0463 2.68005 430.973 -53.0463 2.68005 430.973
2007 1 -54.7204 2.64868 432.885 -54.7204 2.64868 432.885
1456 1 -40.249 2.76451 425.799 -40.249 2.76451 425.799
1741 1 -41.9251 2.73411 427.709 -41.9251 2.73411 427.709
1738 1 -43.6007 2.70344 429.62 -43.6007 2.70344 429.62
2024 1 -45.2758 2.67253 431.531 -45.2758 2.67253 431.531
2021 1 -46.9504 2.64142 433.442 -46.9504 2.64142 433.442
2035 1 -39.1813 2.63477 434.002 -39.1813 2.63477 434.002
1754 1 -34.7877 2.02576 425.856 -34.7877 2.02576 425.856
1423 1 -58.7427 1.35404 421.763 -58.7427 1.35404 421.763
1420 1 -60.4176 1.32299 423.674 -60.4176 1.32299 423.674
2044 1 -33.7228 1.89756 434.059 -33.7228 1.89756 434.059
1437 1 -50.9693 1.3445 422.319 -50.9693 1.3445 422.319
1434 1 -52.6448 1.31369 424.23 -52.6448 1.31369 424.23
1721 1 -54.3199 1.28268 426.142 -54.3199 1.28268 426.142
1717 1 -55.9946 1.25148 428.054 -55.9946 1.25148 428.054
1714 1 -57.669 1.22014 429.966 -57.669 1.22014 429.966
1999 1 -59.3431 1.18869 431.878 -59.3431 1.18869 431.878
1997 1 -61.0169 1.1572 433.79 -61.0169 1.1572 433.79
1164 1 -41.5192 1.36514 420.967 -41.5192 1.36514 420.967
1451 1 -43.1958 1.33502 422.878 -43.1958 1.33502 422.878
1448 1 -44.8719 1.30463 424.788 -44.8719 1.30463 424.788
1734 1 -46.5477 1.27399 426.699 -46.5477 1.27399 426.699
1731 1 -48.223 1.24312 428.61 -48.223 1.24312 428.61
2016 1 -49.8978 1.21205 430.522 -49.8978 1.21205 430.522
2012 1 -51.5722 1.18079 432.433 -51.5722 1.18079 432.433
2009 1 -53.2462 1.14941 434.345 -53.2462 1.14941 434.345
1746 1 -38.7758 1.26572 427.26 -38.7758 1.26572 427.26
1744 1 -40.4519 1.23532 429.17 -40.4519 1.23532 429.17
2030 1 -42.1274 1.20463 431.081 -42.1274 1.20463 431.081
2027 1 -43.8024 1.1737 432.992 -43.8024 1.1737 432.992
2325 1 -37.7085 1.13625 435.463 -37.7085 1.13625 435.463
1749 1 -37.3028 4.19449 428.721 -37.3028 4.19449 428.721
1425 1 -57.2684 4.28182 423.222 -57.2684 4.28182 423.222
1736 1 -45.0741 4.20238 428.159 -45.0741 4.20238 428.159
1142 1 -54.7555 2.11439 420.355 -54.7555 2.11439 420.355
1720 1 -54.5204 4.17944 429.513 -54.5204 4.17944 429.513
2005 1 -56.1947 4.14808 431.425 -56.1947 4.14808 431.425
2002 1 -57.8686 4.11662 433.338 -57.8686 4.11662 433.338
1169 1 -38.3687 4.3234 420.519 -38.3687 4.3234 420.519
1723 1 -52.8458 4.21066 427.602 -52.8458 4.21066 427.602
1440 1 -49.4953 4.27252 423.779 -49.4953 4.27252 423.779
1733 1 -46.7493 4.17149 430.071 -46.7493 4.17149 430.071
2018 1 -48.424 4.14039 431.982 -48.424 4.14039 431.982
2015 1 -50.0983 4.10912 433.894 -50.0983 4.10912 433.894
2036 1 -38.9789 4.16408 430.631 -38.9789 4.16408 430.631
2032 1 -40.6543 4.13338 432.541 -40.6543 4.13338 432.541
2326 1 -37.0731 1.83602 437.88 -37.0731 1.83602 437.88
1752 1 -35.6262 4.22457 426.811 -35.6262 4.22457 426.811
1457 1 -40.0457 4.29355 422.428 -40.0457 4.29355 422.428
2043 1 -34.3573 1.19741 431.643 -34.3573 1.19741 431.643
2286 1 -60.379 1.85567 436.206 -60.379 1.85567 436.206
2319 1 -41.0569 1.07407 439.286 -41.0569 1.07407 439.286
1436 1 -51.1707 4.2417 425.69 -51.1707 4.2417 425.69
1422 1 -58.9432 4.25071 425.134 -58.9432 4.25071 425.134
1173 1 -36.0567 0.625527 421.025 -36.0567 0.625527 421.025
2293 1 -56.593 1.08646 438.17 -56.593 1.08646 438.17
2289 1 -58.9043 0.356263 437.666 -58.9043 0.356263 437.666
2295 1 -55.1185 4.0148 439.63 -55.1185 4.0148 439.63
1465 1 -35.4221 1.32561 423.441 -35.4221 1.32561 423.441
2315 1 -43.367 0.343285 438.781 -43.367 0.343285 438.781
2331 1 -34.5606 4.09602 435.014 -34.5606 4.09602 435.014
2297 1 -54.282 1.81681 438.674 -54.282 1.81681 438.674
2324 1 -37.9102 4.03421 438.836 -37.9102 4.03421 438.836
2306 1 -48.8241 1.07992 438.727 -48.8241 1.07992 438.727
2285 1 -60.5774 0.324843 439.578 -60.5774 0.324843 439.578
1462 1 -37.0992 1.29582 425.35 -37.0992 1.29582 425.35
1751 1 -35.83 2.6959 430.182 -35.83 2.6959 430.182
2329 1 -35.3983 1.86694 435.969 -35.3983 1.86694 435.969
2042 1 -35.1953 3.39597 432.598 -35.1953 3.39597 432.598
2041 1 -36.0332 1.16699 433.553 -36.0332 1.16699 433.553
2593 1 -49.6606 3.27794 439.683 -49.6606 3.27794 439.683
2328 1 -35.6004 0.337598 439.341 -35.6004 0.337598 439.341
2301 1 -51.9712 2.54731 439.178 -51.9712 2.54731 439.178
1466 1 -34.5834 3.55411 422.486 -34.5834 3.55411 422.486
2298 1 -54.083 3.34741 435.302 -54.083 3.34741 435.302
2321 1 -40.2201 3.3034 438.33 -40.2201 3.3034 438.33
2313 1 -44.8404 1.84194 437.32 -44.8404 1.84194 437.32
2294 1 -55.7564 3.31593 437.214 -55.7564 3.31593 437.214
2304 1 -50.298 2.57876 437.266 -50.298 2.57876 437.266
2300 1 -52.6088 1.84828 436.762 -52.6088 1.84828 436.762
2290 1 -58.0676 2.58573 436.71 -58.0676 2.58573 436.71
2318 1 -41.6932 0.374515 436.869 -41.6932 0.374515 436.869
2327 1 -36.2358 4.06524 436.925 -36.2358 4.06524 436.925
2004 1 -56.3942 2.61722 434.798 -56.3942 2.61722 434.798
2013 1 -50.9352 1.87971 434.85 -50.9352 1.87971 434.85
2288 1 -59.5423 4.08513 435.25 -59.5423 4.08513 435.25
2037 1 -38.3437 0.43644 433.047 -38.3437 0.43644 433.047
1739 1 -43.3984 4.23303 426.249 -43.3984 4.23303 426.249
1753 1 -34.9917 0.497256 429.227 -34.9917 0.497256 429.227
2307 1 -48.6245 2.61014 435.354 -48.6245 2.61014 435.354
2314 1 -44.0034 4.07129 436.364 -44.0034 4.07129 436.364
2040 1 -36.668 0.467011 431.137 -36.668 0.467011 431.137
2320 1 -40.8561 2.6038 435.913 -40.8561 2.6038 435.913
2292 1 -57.2309 0.387746 435.754 -57.2309 0.387746 435.754
2311 1 -46.3139 3.34067 435.859 -46.3139 3.34067 435.859
2302 1 -51.7721 4.07773 435.806 -51.7721 4.07773 435.806
2296 1 -54.9198 1.11794 436.258 -54.9198 1.11794 436.258
1463 1 -36.8953 2.82445 421.98 -36.8953 2.82445 421.98
2287 1 -59.7409 2.55427 438.622 -59.7409 2.55427 438.622
2291 1 -57.4296 3.28445 439.126 -57.4296 3.28445 439.126
2317 1 -42.5301 2.57264 437.825 -42.5301 2.57264 437.825
2038 1 -37.506 2.66549 432.092 -37.506 2.66549 432.092
2305 1 -49.4613 0.380734 436.31 -49.4613 0.380734 436.31
2332 1 -33.9258 0.368565 437.431 -33.9258 0.368565 437.431
1709 1 -60.6178 4.21942 427.046 -60.6178 4.21942 427.046
1468 1 -33.7446 1.35509 421.532 -33.7446 1.35509 421.532
1454 1 -41.7223 4.26343 424.338 -41.7223 4.26343 424.338
1429 1 -55.5932 4.31273 421.311 -55.5932 4.31273 421.311
1133 1 -60.2171 2.85381 420.303 -60.2171 2.85381 420.303
1175 1 -35.2179 2.85399 420.071 -35.2179 2.85399 420.071
2616 1 -36.6379 1.00604 443.67 -36.6379 1.00604 443.67
2901 1 -38.3104 0.97471 445.582 -38.3104 0.97471 445.582
2907 1 -35.165 3.93502 445.131 -35.165 3.93502 445.131
3194 1 -36.1997 0.175751 449.461 -36.1997 0.175751 449.461
2587 1 -52.8076 0.317857 440.134 -52.8076 0.317857 440.134
2597 1 -47.3503 4.00865 440.188 -47.3503 4.00865 440.188
2584 1 -54.4802 0.286423 442.047 -54.4802 0.286423 442.047
2581 1 -56.1525 0.255068 443.959 -56.1525 0.255068 443.959
2868 1 -57.8245 0.223852 445.871 -57.8245 0.223852 445.871
2865 1 -59.4964 0.192843 447.783 -59.4964 0.192843 447.783
2601 1 -45.0402 0.311965 440.693 -45.0402 0.311965 440.693
2598 1 -46.7128 0.280617 442.605 -46.7128 0.280617 442.605
2885 1 -48.385 0.249298 444.517 -48.385 0.249298 444.517
2882 1 -50.0567 0.218063 446.429 -50.0567 0.218063 446.429
2879 1 -51.7281 0.186971 448.342 -51.7281 0.186971 448.342
2612 1 -38.9473 0.275131 443.164 -38.9473 0.275131 443.164
2898 1 -40.6197 0.243816 445.076 -40.6197 0.243816 445.076
2895 1 -42.2915 0.212545 446.989 -42.2915 0.212545 446.989
3180 1 -43.9628 0.181365 448.901 -43.9628 0.181365 448.901
2576 1 -59.1024 3.25304 441.038 -59.1024 3.25304 441.038
2574 1 -60.7751 3.22177 442.951 -60.7751 3.22177 442.951
2589 1 -51.3334 3.24652 441.595 -51.3334 3.24652 441.595
2586 1 -53.0057 3.21513 443.507 -53.0057 3.21513 443.507
2874 1 -54.6776 3.18384 445.42 -54.6776 3.18384 445.42
2871 1 -56.3493 3.1527 447.332 -56.3493 3.1527 447.332
3155 1 -58.0208 3.12176 449.244 -58.0208 3.12176 449.244
2607 1 -41.8936 3.27216 440.242 -41.8936 3.27216 440.242
2604 1 -43.5666 3.24084 442.154 -43.5666 3.24084 442.154
2600 1 -45.239 3.20952 444.066 -45.239 3.20952 444.066
2887 1 -46.9109 3.17825 445.978 -46.9109 3.17825 445.978
2884 1 -48.5823 3.14708 447.891 -48.5823 3.14708 447.891
3168 1 -50.2534 3.11608 449.803 -50.2534 3.11608 449.803
2900 1 -39.1463 3.17278 446.538 -39.1463 3.17278 446.538
2897 1 -40.8178 3.14155 448.45 -40.8178 3.14155 448.45
2582 1 -55.9549 1.78535 440.586 -55.9549 1.78535 440.586
2579 1 -57.6274 1.75396 442.499 -57.6274 1.75396 442.499
2866 1 -59.2998 1.7227 444.411 -59.2998 1.7227 444.411
2578 1 -58.266 1.05501 440.082 -58.266 1.05501 440.082
2595 1 -48.1867 1.77923 441.144 -48.1867 1.77923 441.144
2592 1 -49.8591 1.74786 443.056 -49.8591 1.74786 443.056
2880 1 -51.5312 1.71655 444.968 -51.5312 1.71655 444.968
2877 1 -53.2028 1.68535 446.881 -53.2028 1.68535 446.881
2873 1 -54.8742 1.65432 448.793 -54.8742 1.65432 448.793
2609 1 -40.4204 1.77363 441.703 -40.4204 1.77363 441.703
2606 1 -42.0931 1.74231 443.615 -42.0931 1.74231 443.615
2892 1 -43.7652 1.71101 445.527 -43.7652 1.71101 445.527
2890 1 -45.4368 1.67978 447.44 -45.4368 1.67978 447.44
3174 1 -47.1079 1.64867 449.352 -47.1079 1.64867 449.352
2618 1 -35.8014 3.23543 442.714 -35.8014 3.23543 442.714
2585 1 -53.644 2.51586 441.091 -53.644 2.51586 441.091
2583 1 -55.3164 2.48446 443.003 -55.3164 2.48446 443.003
2870 1 -56.9886 2.45316 444.915 -56.9886 2.45316 444.915
2867 1 -58.6605 2.42204 446.827 -58.6605 2.42204 446.827
2863 1 -60.3323 2.39116 448.739 -60.3323 2.39116 448.739
2599 1 -45.8766 2.51002 441.649 -45.8766 2.51002 441.649
2596 1 -47.549 2.47868 443.561 -47.549 2.47868 443.561
2883 1 -49.2209 2.44739 445.473 -49.2209 2.44739 445.473
2881 1 -50.8925 2.41622 447.386 -50.8925 2.41622 447.386
3164 1 -52.5636 2.38523 449.298 -52.5636 2.38523 449.298
2610 1 -39.7836 2.4732 444.12 -39.7836 2.4732 444.12
2896 1 -41.4557 2.4419 446.032 -41.4557 2.4419 446.032
2893 1 -43.1272 2.41067 447.945 -43.1272 2.41067 447.945
3178 1 -44.7982 2.37955 449.857 -44.7982 2.37955 449.857
2575 1 -59.9388 1.02366 441.995 -59.9388 1.02366 441.995
2591 1 -50.497 1.0485 440.639 -50.497 1.0485 440.639
2588 1 -52.1696 1.01709 442.551 -52.1696 1.01709 442.551
2876 1 -53.8417 0.985746 444.463 -53.8417 0.985746 444.463
2872 1 -55.5135 0.954519 446.376 -55.5135 0.954519 446.376
2869 1 -57.1851 0.923472 448.288 -57.1851 0.923472 448.288
2605 1 -42.7302 1.04278 441.198 -42.7302 1.04278 441.198
2602 1 -44.4029 1.01145 443.11 -44.4029 1.01145 443.11
2889 1 -46.075 0.980146 445.022 -46.075 0.980146 445.022
2886 1 -47.7467 0.94892 446.934 -47.7467 0.94892 446.934
3170 1 -49.4179 0.91783 448.847 -49.4179 0.91783 448.847
2899 1 -39.9822 0.943427 447.494 -39.9822 0.943427 447.494
3184 1 -41.6534 0.91225 449.406 -41.6534 0.91225 449.406
2580 1 -56.7912 3.98336 441.542 -56.7912 3.98336 441.542
2577 1 -58.4637 3.95204 443.455 -58.4637 3.95204 443.455
2864 1 -60.1359 3.92088 445.367 -60.1359 3.92088 445.367
2862 1 -60.972 1.69166 446.323 -60.972 1.69166 446.323
2594 1 -49.023 3.97727 442.1 -49.023 3.97727 442.1
2590 1 -50.6952 3.94592 444.012 -50.6952 3.94592 444.012
2878 1 -52.367 3.91466 445.924 -52.367 3.91466 445.924
2875 1 -54.0385 3.88353 447.837 -54.0385 3.88353 447.837
3159 1 -55.7098 3.85261 449.749 -55.7098 3.85261 449.749
2611 1 -39.5838 4.003 440.747 -39.5838 4.003 440.747
2608 1 -41.2569 3.9717 442.659 -41.2569 3.9717 442.659
2894 1 -42.9293 3.94038 444.571 -42.9293 3.94038 444.571
2891 1 -44.6011 3.90911 446.483 -44.6011 3.90911 446.483
2888 1 -46.2725 3.87794 448.396 -46.2725 3.87794 448.396
2904 1 -36.8372 3.90366 447.043 -36.8372 3.90366 447.043
2621 1 -34.1278 3.26666 440.803 -34.1278 3.26666 440.803
2617 1 -36.4374 2.53576 440.297 -36.4374 2.53576 440.297
2614 1 -38.1108 2.50451 442.208 -38.1108 2.50451 442.208
2908 1 -34.5282 0.207099 447.549 -34.5282 0.207099 447.549
2619 1 -34.9647 1.03733 441.758 -34.9647 1.03733 441.758
2906 1 -35.364 2.40513 448.505 -35.364 2.40513 448.505
2905 1 -36.0012 1.70561 446.087 -36.0012 1.70561 446.087
2620 1 -34.3287 1.73698 444.176 -34.3287 1.73698 444.176
3190 1 -38.5087 3.87239 448.956 -38.5087 3.87239 448.956
2902 1 -37.673 1.67428 448 -37.673 1.67428 448
2903 1 -37.4742 3.2041 444.626 -37.4742 3.2041 444.626
2615 1 -37.2742 0.306421 441.253 -37.2742 0.306421 441.253
2909 1 -33.6923 2.43654 446.593 -33.6923 2.43654 446.593
14 1 -52.7634 0.251611 399.294 -52.7634 4.67906 399.294
7 1 -57.2733 3.19752 398.402 -57.2733 3.19752 398.402
25 1 -44.9492 0.250503 399.771 -44.9492 4.67796 399.771
38 1 -37.1298 0.188363 400.278 -37.1298 4.61582 400.278
23 1 -46.621 0.201883 401.671 -46.621 4.62934 401.671
287 1 -49.9641 0.133272 405.468 -49.9641 4.56072 405.468
878 1 -41.1129 4.42313 414.227 -41.1129 4.42313 414.227
579 1 -47.2136 0.0371256 411.757 -47.2136 4.46458 411.757
585 1 -43.8601 0.096453 407.937 -43.8601 4.52391 407.937
290 1 -48.2934 0.165907 403.562 -48.2934 4.59336 403.562
11 1 -54.3928 0.190995 401.135 -54.3928 4.61845 401.135
595 1 -37.7583 0.0545813 410.408 -37.7583 4.48203 410.408
1134 1 -60.0163 4.38433 416.932 -60.0163 4.38433 416.932
283 1 -51.6392 0.104571 407.377 -51.6392 4.53202 407.377
582 1 -45.5369 0.0667869 409.847 -45.5369 4.49424 409.847
276 1 -56.0763 0.179061 403.009 -56.0763 4.60651 403.009
569 1 -53.3146 0.0765127 409.286 -53.3146 4.50397 409.286
847 1 -58.3407 4.41457 415.02 -58.3407 4.41457 415.02
556 1 -61.0896 0.09031 408.732 -61.0896 4.51776 408.732
272 1 -57.7447 0.153079 404.908 -57.7447 4.58053 404.908
3 1 -59.0907 3.2004 400.102 -59.0907 3.2004 400.102
35 1 -38.8202 0.17999 402.196 -38.8202 4.60744 402.196
598 1 -36.0804 0.083598 408.499 -36.0804 4.51105 408.499