ITEM: TIMESTEP
0
ITEM: NUMBER OF ATOMS
4630
ITEM: BOX BOUNDS xy xz yz pp pp pp
-5.7240988501799997e+01 1.0026002035000000e+02 0.0000000000000000e+00
0.0000000000000000e+00 4.4274527100805940e+00 0.0000000000000000e+00
3.8000000000000000e+02 5.0000000000000000e+02 0.0000000000000000e+00
ITEM: ATOMS id type x y z xu yu zu
27 1 -42.5284 2.64665 398.368 -42.5284 2.64665 398.368
36 1 -37.0969 1.89811 398.143 -37.0969 1.89811 398.143
31 1 -40.1444 3.31837 398.683 -40.1444 3.31837 398.683
22 1 -45.5942 4.07341 398.945 -45.5942 4.07341 398.945
20 1 -46.3507 1.85831 399.863 -46.3507 1.85831 399.863
40 1 -34.7155 2.57284 398.465 -34.7155 2.57284 398.465
34 1 -37.8372 4.0994 399.049 -37.8372 4.0994 399.049
17 1 -48.6622 1.09514 399.507 -48.6622 1.09514 399.507
9 1 -54.0366 1.77169 399.705 -54.0366 1.77169 399.705
43 1 -32.4101 3.35468 398.834 -32.4101 3.35468 398.834
12 1 -51.7678 2.62128 400.102 -51.7678 2.62128 400.102
5 1 -56.4136 1.1493 399.383 -56.4136 1.1493 399.383
29 1 -40.9284 1.09345 399.599 -40.9284 1.09345 399.599
853 1 -52.6089 3.05086 414.673 -52.6089 3.05086 414.673
873 1 -41.8016 1.57706 414.209 -41.8016 1.57706 414.209
865 1 -45.6746 0.809505 415.83 -45.6746 0.809505 415.83
1174 1 -33.3264 2.25537 416.766 -33.3264 2.25537 416.766
883 1 -36.3931 0.837882 413.983 -36.3931 0.837882 413.983
863 1 -47.2071 2.31512 414.44 -47.2071 2.31512 414.44
315 1 -32.4368 1.78979 402.195 -32.4368 1.78979 402.195
307 1 -37.1013 3.23025 404.802 -37.1013 3.23025 404.802
1150 1 -47.235 0.768835 417.836 -47.235 0.768835 417.836
855 1 -51.0777 1.54547 416.062 -51.0777 1.54547 416.062
310 1 -35.5407 3.26422 402.804 -35.5407 3.26422 402.804
871 1 -42.5817 3.77122 415.212 -42.5817 3.77122 415.212
16 1 -49.4319 3.29882 400.43 -49.4319 3.29882 400.43
309 1 -35.5623 1.72502 406.192 -35.5623 1.72502 406.192
1156 1 -44.1425 3.73143 417.219 -44.1425 3.73143 417.219
867 1 -44.8947 3.04324 414.826 -44.8947 3.04324 414.826
1159 1 -41.8299 0.0323731 417.605 -41.8299 4.45983 417.605
1168 1 -36.4222 3.72219 417.378 -36.4222 3.72219 417.378
1170 1 -35.6408 1.52763 416.376 -35.6408 1.52763 416.376
594 1 -36.3425 3.92142 407.193 -36.3425 3.92142 407.193
37 1 -36.2935 2.56249 400.423 -36.2935 2.56249 400.423
851 1 -53.3882 0.816502 415.677 -53.3882 0.816502 415.677
857 1 -50.2982 3.77981 415.059 -50.2982 3.77981 415.059
592 1 -37.1224 1.68984 408.195 -37.1224 1.68984 408.195
849 1 -54.1678 3.0094 416.681 -54.1678 3.0094 416.681
877 1 -39.4879 2.30486 414.597 -39.4879 2.30486 414.597
1143 1 -51.8574 3.73842 417.066 -51.8574 3.73842 417.066
1140 1 -53.4175 3.69633 419.074 -53.4175 3.69633 419.074
845 1 -56.4777 2.28074 416.296 -56.4777 2.28074 416.296
875 1 -40.2685 0.0717489 415.599 -40.2685 4.4992 415.599
886 1 -34.8315 0.875152 411.98 -34.8315 0.875152 411.98
891 1 -31.7344 3.83383 411.37 -31.7344 3.83383 411.37
39 1 -34.7651 1.06465 401.8 -34.7651 1.06465 401.8
1177 1 -31.7937 0.750544 418.158 -31.7937 0.750544 418.158
1167 1 -37.2036 1.48911 418.38 -37.2036 1.48911 418.38
8 1 -54.8413 4.04007 400.736 -54.8413 4.04007 400.736
869 1 -43.362 1.53771 416.215 -43.362 1.53771 416.215
1136 1 -55.7275 2.96709 418.689 -55.7275 2.96709 418.689
1162 1 -40.2981 2.95472 418.995 -40.2981 2.95472 418.995
15 1 -50.2182 1.08198 401.476 -50.2182 1.08198 401.476
280 1 -51.769 1.05156 403.478 -51.769 1.05156 403.478
277 1 -53.3241 1.02597 405.481 -53.3241 1.02597 405.481
273 1 -54.8733 0.987402 407.492 -54.8733 0.987402 407.492
560 1 -56.427 0.948785 409.501 -56.427 0.948785 409.501
26 1 -42.4941 1.08144 401.616 -42.4941 1.08144 401.616
294 1 -44.053 1.05216 403.635 -44.053 1.05216 403.635
291 1 -45.6084 1.01526 405.642 -45.6084 1.01526 405.642
576 1 -47.1624 0.976465 407.648 -47.1624 0.976465 407.648
573 1 -48.7174 0.937808 409.654 -48.7174 0.937808 409.654
570 1 -50.273 0.898066 411.661 -50.273 0.898066 411.661
854 1 -51.8299 0.857569 413.669 -51.8299 0.857569 413.669
305 1 -37.8803 0.999218 405.802 -37.8803 0.999218 405.802
589 1 -39.4386 0.963166 407.806 -39.4386 0.963166 407.806
586 1 -40.997 0.926116 409.811 -40.997 0.926116 409.811
872 1 -42.5557 0.888158 411.817 -42.5557 0.888158 411.817
599 1 -33.2698 0.911382 409.978 -33.2698 0.911382 409.978
4 1 -56.4079 4.04971 402.686 -56.4079 4.04971 402.686
1152 1 -46.4547 3.00299 416.833 -46.4547 3.00299 416.833
19 1 -47.139 4.04415 400.874 -47.139 4.04415 400.874
286 1 -48.6861 4.00884 402.849 -48.6861 4.00884 402.849
282 1 -50.2326 3.97599 404.861 -50.2326 3.97599 404.861
279 1 -51.7862 3.94471 406.869 -51.7862 3.94471 406.869
565 1 -53.3387 3.90753 408.879 -53.3387 3.90753 408.879
563 1 -54.8938 3.86874 410.889 -54.8938 3.86874 410.889
846 1 -56.4506 3.8289 412.898 -56.4506 3.8289 412.898
32 1 -39.4015 4.04357 401.032 -39.4015 4.04357 401.032
300 1 -40.9598 4.00983 403.025 -40.9598 4.00983 403.025
297 1 -42.515 3.97397 405.028 -42.515 3.97397 405.028
293 1 -44.0704 3.93744 407.032 -44.0704 3.93744 407.032
578 1 -45.6262 3.89941 409.038 -45.6262 3.89941 409.038
575 1 -47.1828 3.86053 411.044 -47.1828 3.86053 411.044
860 1 -48.74 3.82058 413.051 -48.74 3.82058 413.051
591 1 -37.9022 3.88537 409.197 -37.9022 3.88537 409.197
588 1 -39.4617 3.84821 411.201 -39.4617 3.84821 411.201
874 1 -41.0215 3.81014 413.207 -41.0215 3.81014 413.207
10 1 -53.3119 2.54996 402.095 -53.3119 2.54996 402.095
274 1 -54.8666 2.53819 404.087 -54.8666 2.53819 404.087
271 1 -56.4081 2.49547 406.104 -56.4081 2.49547 406.104
24 1 -44.0566 2.59898 400.288 -44.0566 2.59898 400.288
21 1 -45.6038 2.55765 402.255 -45.6038 2.55765 402.255
288 1 -47.1489 2.51909 404.255 -47.1489 2.51909 404.255
285 1 -48.6987 2.47885 406.258 -48.6987 2.47885 406.258
571 1 -50.252 2.44155 408.263 -50.252 2.44155 408.263
568 1 -51.8059 2.40262 410.271 -51.8059 2.40262 410.271
852 1 -53.3618 2.36281 412.279 -53.3618 2.36281 412.279
848 1 -54.9192 2.32234 414.288 -54.9192 2.32234 414.288
306 1 -37.8599 2.53547 402.41 -37.8599 2.53547 402.41
302 1 -39.4191 2.50336 404.409 -39.4191 2.50336 404.409
299 1 -40.9759 2.46804 406.415 -40.9759 2.46804 406.415
583 1 -42.533 2.43153 408.421 -42.533 2.43153 408.421
581 1 -44.0905 2.39376 410.427 -44.0905 2.39376 410.427
866 1 -45.6485 2.35497 412.434 -45.6485 2.35497 412.434
880 1 -37.9271 2.34301 412.592 -37.9271 2.34301 412.592
312 1 -34.001 1.75862 404.191 -34.001 1.75862 404.191
13 1 -50.9864 3.27638 402.456 -50.9864 3.27638 402.456
278 1 -52.5464 3.25343 404.471 -52.5464 3.25343 404.471
275 1 -54.0976 3.22072 406.484 -54.0976 3.22072 406.484
562 1 -55.6494 3.18174 408.496 -55.6494 3.18174 408.496
1166 1 -37.9851 3.68329 419.382 -37.9851 3.68329 419.382
889 1 -32.5157 1.6021 412.371 -32.5157 1.6021 412.371
28 1 -41.7181 3.31043 400.644 -41.7181 3.31043 400.644
296 1 -43.2774 3.28163 402.636 -43.2774 3.28163 402.636
292 1 -44.8318 3.24781 404.64 -44.8318 3.24781 404.64
289 1 -46.3853 3.20978 406.646 -46.3853 3.20978 406.646
574 1 -47.9398 3.17103 408.651 -47.9398 3.17103 408.651
572 1 -49.495 3.13185 410.658 -49.495 3.13185 410.658
856 1 -51.0513 3.09162 412.665 -51.0513 3.09162 412.665
303 1 -38.6598 3.19494 406.804 -38.6598 3.19494 406.804
587 1 -40.2179 3.15843 408.808 -40.2179 3.15843 408.808
584 1 -41.7763 3.12096 410.814 -41.7763 3.12096 410.814
870 1 -43.3352 3.08257 412.82 -43.3352 3.08257 412.82
6 1 -55.6336 1.84748 401.677 -55.6336 1.84748 401.677
890 1 -31.763 2.29257 414.764 -31.763 2.29257 414.764
18 1 -47.9078 1.81348 401.857 -47.9078 1.81348 401.857
284 1 -49.4561 1.77976 403.861 -49.4561 1.77976 403.861
281 1 -51.0097 1.74778 405.867 -51.0097 1.74778 405.867
567 1 -52.5625 1.71306 407.875 -52.5625 1.71306 407.875
564 1 -54.1161 1.67451 409.885 -54.1161 1.67451 409.885
561 1 -55.6721 1.63531 411.894 -55.6721 1.63531 411.894
33 1 -38.634 1.8483 400.058 -38.634 1.8483 400.058
30 1 -40.1881 1.81046 402.018 -40.1881 1.81046 402.018
298 1 -41.7379 1.77749 404.022 -41.7379 1.77749 404.022
295 1 -43.2927 1.74212 406.029 -43.2927 1.74212 406.029
580 1 -44.8482 1.70477 408.035 -44.8482 1.70477 408.035
577 1 -46.4045 1.66632 410.041 -46.4045 1.66632 410.041
862 1 -47.9613 1.62694 412.048 -47.9613 1.62694 412.048
590 1 -38.6819 1.6532 410.199 -38.6819 1.6532 410.199
876 1 -40.2416 1.61556 412.204 -40.2416 1.61556 412.204
1163 1 -39.5169 0.760766 417.992 -39.5169 0.760766 417.992
1153 1 -45.7037 3.69082 419.225 -45.7037 3.69082 419.225
311 1 -34.7811 3.95602 405.191 -34.7811 3.95602 405.191
42 1 -33.206 1.10357 399.843 -33.206 1.10357 399.843
1135 1 -56.5077 0.731904 419.693 -56.5077 0.731904 419.693
1171 1 -34.8899 2.21734 418.769 -34.8899 2.21734 418.769
1139 1 -54.1978 1.46129 420.078 -54.1978 1.46129 420.078
601 1 -32.4887 3.14276 408.977 -32.4887 3.14276 408.977
313 1 -33.2167 3.98954 403.189 -33.2167 3.98954 403.189
858 1 -49.519 1.58654 414.055 -49.519 1.58654 414.055
868 1 -44.1149 0.849304 413.823 -44.1149 0.849304 413.823
1147 1 -49.5465 0.0400032 417.451 -49.5465 4.46746 417.451
593 1 -36.3666 2.38026 410.588 -36.3666 2.38026 410.588
308 1 -36.3211 1.03305 403.799 -36.3211 1.03305 403.799
861 1 -47.9867 0.0811173 415.444 -47.9867 4.50857 415.444
1158 1 -42.6108 2.22611 418.608 -42.6108 2.22611 418.608
884 1 -35.6123 3.07036 412.981 -35.6123 3.07036 412.981
881 1 -37.1739 3.03264 414.985 -37.1739 3.03264 414.985
885 1 -34.8595 3.76031 415.375 -34.8595 3.76031 415.375
859 1 -48.7665 2.27437 416.448 -48.7665 2.27437 416.448
596 1 -34.8059 2.41643 408.585 -34.8059 2.41643 408.585
879 1 -37.9548 0.799728 415.987 -37.9548 0.799728 415.987
1172 1 -34.1081 0.022733 417.767 -34.1081 4.45019 417.767
1154 1 -44.923 1.4975 418.222 -44.923 1.4975 418.222
887 1 -34.0783 1.56532 414.373 -34.0783 1.56532 414.373
597 1 -34.0507 3.10713 410.979 -34.0507 3.10713 410.979
1161 1 -41.0491 2.26589 416.602 -41.0491 2.26589 416.602
1138 1 -54.9475 0.774621 417.685 -54.9475 0.774621 417.685
1149 1 -48.0154 2.96194 418.84 -48.0154 2.96194 418.84
41 1 -33.977 3.29747 400.815 -33.977 3.29747 400.815
888 1 -33.297 3.79756 413.372 -33.297 3.79756 413.372
1165 1 -38.7358 2.99407 416.99 -38.7358 2.99407 416.99
1141 1 -52.6373 1.50374 418.07 -52.6373 1.50374 418.07
1145 1 -50.3266 2.23291 418.455 -50.3266 2.23291 418.455
600 1 -33.2446 2.45129 406.584 -33.2446 2.45129 406.584
1148 1 -48.796 0.727406 419.844 -48.796 0.727406 419.844
882 1 -37.1469 0.148027 411.59 -37.1469 4.57548 411.59
1157 1 -43.3917 4.41965 419.611 -43.3917 4.41965 419.611
1144 1 -51.107 4.42564 419.459 -51.107 4.42564 419.459
602 1 -31.7074 0.946385 407.976 -31.7074 0.946385 407.976
1755 1 -31.1146 2.78289 427.336 -31.1146 2.78289 427.336
1460 1 -35.705 2.86804 423.165 -35.705 2.86804 423.165
2308 1 -44.3419 3.30621 437.591 -44.3419 3.30621 437.591
2316 1 -39.688 1.88897 434.965 -39.688 1.88897 434.965
2312 1 -42.0323 4.03799 437.976 -42.0323 4.03799 437.976
1464 1 -33.3919 3.59696 423.554 -33.3919 3.59696 423.554
1461 1 -34.9226 0.673944 422.163 -34.9226 0.673944 422.163
2039 1 -33.5023 3.39328 433.733 -33.5023 3.39328 433.733
2613 1 -35.1043 1.80632 439.132 -35.1043 1.80632 439.132
1467 1 -31.0784 4.32566 423.943 -31.0784 4.32566 423.943
2603 1 -40.5039 2.53443 439.365 -40.5039 2.53443 439.365
1443 1 -44.954 4.3787 421.617 -44.954 4.3787 421.617
1748 1 -34.9573 3.55768 425.557 -34.9573 3.55768 425.557
2023 1 -41.9981 1.15749 434.58 -41.9981 1.15749 434.58
2310 1 -42.8132 1.80248 438.98 -42.8132 1.80248 438.98
1151 1 -46.4846 1.4565 420.229 -46.4846 1.4565 420.229
2303 1 -47.4326 0.339092 438.21 -47.4326 0.339092 438.21
2299 1 -49.7428 4.03527 437.825 -49.7428 4.03527 437.825
2033 1 -36.5957 0.427794 434.349 -36.5957 0.427794 434.349
1433 1 -50.3575 0.685278 421.851 -50.3575 0.685278 421.851
1430 1 -51.9195 0.642545 423.859 -51.9195 0.642545 423.859
1426 1 -53.482 0.599367 425.866 -53.482 0.599367 425.866
1713 1 -55.0449 0.555954 427.874 -55.0449 0.555954 427.874
1710 1 -56.6082 0.512529 429.881 -56.6082 0.512529 429.881
2330 1 -31.2299 2.58002 437.514 -31.2299 2.58002 437.514
1160 1 -41.0794 0.721018 419.997 -41.0794 0.721018 419.997
1447 1 -42.6422 0.680502 422.003 -42.6422 0.680502 422.003
1444 1 -44.2052 0.639247 424.009 -44.2052 0.639247 424.009
1730 1 -45.7684 0.597298 426.016 -45.7684 0.597298 426.016
1727 1 -47.3316 0.554741 428.023 -47.3316 0.554741 428.023
1724 1 -48.8948 0.511709 430.03 -48.8948 0.511709 430.03
2008 1 -50.4578 0.46838 432.038 -50.4578 0.46838 432.038
2006 1 -52.0207 0.424952 434.045 -52.0207 0.424952 434.045
1458 1 -36.4873 0.634498 424.167 -36.4873 0.634498 424.167
1743 1 -38.0521 0.594277 426.171 -38.0521 0.594277 426.171
1740 1 -39.6167 0.553277 428.176 -39.6167 0.553277 428.176
2026 1 -41.181 0.511522 430.182 -41.181 0.511522 430.182
2022 1 -42.7449 0.469081 432.188 -42.7449 0.469081 432.188
2019 1 -44.3082 0.426077 434.195 -44.3082 0.426077 434.195
2309 1 -43.5609 1.11424 436.587 -43.5609 1.11424 436.587
1137 1 -54.9783 3.65356 421.082 -54.9783 3.65356 421.082
1421 1 -56.54 3.61027 423.09 -56.54 3.61027 423.09
1439 1 -47.2655 3.64945 421.232 -47.2655 3.64945 421.232
1435 1 -48.8276 3.60738 423.239 -48.8276 3.60738 423.239
1432 1 -50.3901 3.56472 425.247 -50.3901 3.56472 425.247
1719 1 -51.9529 3.5216 427.254 -51.9529 3.5216 427.254
1716 1 -53.5159 3.47823 429.262 -53.5159 3.47823 429.262
2001 1 -55.0792 3.43483 431.269 -55.0792 3.43483 431.269
1998 1 -56.6425 3.39159 433.276 -56.6425 3.39159 433.276
2323 1 -35.0677 3.35187 435.738 -35.0677 3.35187 435.738
1453 1 -39.5484 3.64361 421.387 -39.5484 3.64361 421.387
1450 1 -41.1119 3.60316 423.392 -41.1119 3.60316 423.392
1446 1 -42.6755 3.56197 425.398 -42.6755 3.56197 425.398
1732 1 -44.2391 3.52008 427.404 -44.2391 3.52008 427.404
1729 1 -45.8026 3.47757 429.411 -45.8026 3.47757 429.411
2014 1 -47.3658 3.43455 431.418 -47.3658 3.43455 431.418
2011 1 -48.9287 3.39121 433.426 -48.9287 3.39121 433.426
1745 1 -36.5226 3.5176 427.56 -36.5226 3.5176 427.56
1742 1 -38.0877 3.47672 429.565 -38.0877 3.47672 429.565
2028 1 -39.6524 3.43505 431.57 -39.6524 3.43505 431.57
2025 1 -41.2164 3.39265 433.577 -41.2164 3.39265 433.577
1427 1 -53.4489 2.14798 422.47 -53.4489 2.14798 422.47
1424 1 -55.011 2.10474 424.478 -55.011 2.10474 424.478
1711 1 -56.5738 2.06127 426.486 -56.5738 2.06127 426.486
2322 1 -35.85 1.11709 436.74 -35.85 1.11709 436.74
1750 1 -33.4275 2.05357 426.947 -33.4275 2.05357 426.947
1155 1 -44.1728 2.18554 420.614 -44.1728 2.18554 420.614
1441 1 -45.7352 2.14423 422.621 -45.7352 2.14423 422.621
1438 1 -47.2979 2.10222 424.628 -47.2979 2.10222 424.628
1725 1 -48.8608 2.05962 426.635 -48.8608 2.05962 426.635
1722 1 -50.4238 2.01655 428.642 -50.4238 2.01655 428.642
1718 1 -51.9869 1.97321 430.65 -51.9869 1.97321 430.65
2003 1 -53.55 1.92981 432.657 -53.55 1.92981 432.657
2000 1 -55.113 1.88654 434.664 -55.113 1.88654 434.664
1459 1 -36.4537 2.17853 420.772 -36.4537 2.17853 420.772
1455 1 -38.0177 2.13895 422.777 -38.0177 2.13895 422.777
1452 1 -39.5818 2.09861 424.782 -39.5818 2.09861 424.782
1737 1 -41.146 2.0575 426.787 -41.146 2.0575 426.787
1735 1 -42.7099 2.01568 428.793 -42.7099 2.01568 428.793
2020 1 -44.2736 1.9732 430.8 -44.2736 1.9732 430.8
2017 1 -45.8369 1.93019 432.807 -45.8369 1.93019 432.807
2034 1 -36.559 1.97292 430.954 -36.559 1.97292 430.954
2031 1 -38.1239 1.93133 432.959 -38.1239 1.93133 432.959
2029 1 -38.9061 4.12397 433.962 -38.9061 4.12397 433.962
1146 1 -49.5767 2.92015 420.847 -49.5767 2.92015 420.847
1431 1 -51.1384 2.87771 422.855 -51.1384 2.87771 422.855
1428 1 -52.7007 2.83473 424.862 -52.7007 2.83473 424.862
1715 1 -54.2634 2.7914 426.87 -54.2634 2.7914 426.87
1712 1 -55.8265 2.74796 428.878 -55.8265 2.74796 428.878
1747 1 -34.9934 2.01366 428.95 -34.9934 2.01366 428.95
1449 1 -41.8608 2.91458 421 -41.8608 2.91458 421
1445 1 -43.4237 2.87369 423.006 -43.4237 2.87369 423.006
1442 1 -44.9868 2.83208 425.013 -44.9868 2.83208 425.013
1728 1 -46.55 2.78981 427.019 -46.55 2.78981 427.019
1726 1 -48.1132 2.747 429.027 -48.1132 2.747 429.027
2010 1 -49.6763 2.7038 431.034 -49.6763 2.7038 431.034
2007 1 -51.2393 2.66039 433.041 -51.2393 2.66039 433.041
1456 1 -37.2697 2.82821 425.169 -37.2697 2.82821 425.169
1741 1 -38.8344 2.7876 427.173 -38.8344 2.7876 427.173
1738 1 -40.3989 2.74622 429.179 -40.3989 2.74622 429.179
2024 1 -41.963 2.70411 431.185 -41.963 2.70411 431.185
2021 1 -43.5266 2.66137 433.191 -43.5266 2.66137 433.191
2035 1 -35.8132 2.66238 433.346 -35.8132 2.66238 433.346
1754 1 -31.8614 2.09267 424.944 -31.8614 2.09267 424.944
1423 1 -55.759 1.41824 422.086 -55.759 1.41824 422.086
1420 1 -57.3211 1.37478 424.094 -57.3211 1.37478 424.094
2044 1 -30.4075 1.93026 433.12 -30.4075 1.93026 433.12
1437 1 -48.0465 1.41477 422.236 -48.0465 1.41477 422.236
1434 1 -49.6088 1.37239 424.243 -49.6088 1.37239 424.243
1721 1 -51.1715 1.32948 426.251 -51.1715 1.32948 426.251
1717 1 -52.7344 1.28621 428.258 -52.7344 1.28621 428.258
1714 1 -54.2975 1.2428 430.266 -54.2975 1.2428 430.266
1999 1 -55.8608 1.19945 432.273 -55.8608 1.19945 432.273
1164 1 -38.7667 1.44982 420.384 -38.7667 1.44982 420.384
1451 1 -40.3301 1.40975 422.39 -40.3301 1.40975 422.39
1448 1 -41.8937 1.36893 424.395 -41.8937 1.36893 424.395
1734 1 -43.4573 1.32739 426.401 -43.4573 1.32739 426.401
1731 1 -45.0208 1.28517 428.408 -45.0208 1.28517 428.408
2016 1 -46.5842 1.24239 430.415 -46.5842 1.24239 430.415
2012 1 -48.1473 1.19918 432.422 -48.1473 1.19918 432.422
2009 1 -49.7101 1.15575 434.43 -49.7101 1.15575 434.43
1746 1 -35.7399 1.32401 426.558 -35.7399 1.32401 426.558
1744 1 -37.3052 1.28354 428.563 -37.3052 1.28354 428.563
2030 1 -38.8701 1.24226 430.568 -38.8701 1.24226 430.568
2027 1 -40.4345 1.20021 432.573 -40.4345 1.20021 432.573
2325 1 -34.2851 1.15897 434.735 -34.2851 1.15897 434.735
1749 1 -34.2105 4.24745 427.948 -34.2105 4.24745 427.948
1425 1 -54.2299 4.34013 423.474 -54.2299 4.34013 423.474
1736 1 -41.928 4.2504 427.79 -41.928 4.2504 427.79
1142 1 -51.8874 2.19075 420.463 -51.8874 2.19075 420.463
1720 1 -51.2053 4.20863 429.646 -51.2053 4.20863 429.646
2005 1 -52.7684 4.16523 431.653 -52.7684 4.16523 431.653
2002 1 -54.3315 4.12187 433.661 -54.3315 4.12187 433.661
1169 1 -35.6718 4.41176 419.771 -35.6718 4.41176 419.771
1723 1 -49.6423 4.25186 427.639 -49.6423 4.25186 427.639
1440 1 -46.5166 4.33704 423.624 -46.5166 4.33704 423.624
1733 1 -43.4918 4.20824 429.796 -43.4918 4.20824 429.796
2018 1 -45.0554 4.16548 431.803 -45.0554 4.16548 431.803
2015 1 -46.6184 4.12227 433.81 -46.6184 4.12227 433.81
2036 1 -35.7762 4.20712 429.952 -35.7762 4.20712 429.952
2032 1 -37.3415 4.16595 431.957 -37.3415 4.16595 431.957
2326 1 -33.5401 1.84863 437.127 -33.5401 1.84863 437.127
1752 1 -32.6444 4.28694 425.945 -32.6444 4.28694 425.945
1457 1 -37.2357 4.37257 421.775 -37.2357 4.37257 421.775
2043 1 -31.1524 1.23988 430.729 -31.1524 1.23988 430.729
2286 1 -56.6759 1.84358 436.671 -56.6759 1.84358 436.671
2319 1 -37.4136 1.07437 438.747 -37.4136 1.07437 438.747
1436 1 -48.0794 4.29471 425.631 -48.0794 4.29471 425.631
1422 1 -55.7923 4.29674 425.482 -55.7923 4.29674 425.482
1173 1 -33.3581 0.712626 420.16 -33.3581 0.712626 420.16
2293 1 -52.8343 1.06901 438.444 -52.8343 1.06901 438.444
2289 1 -55.1456 0.338594 438.06 -55.1456 0.338594 438.06
2295 1 -51.3041 3.9919 439.833 -51.3041 3.9919 439.833
1465 1 -32.6092 1.40259 422.552 -32.6092 1.40259 422.552
2315 1 -39.7229 0.342427 438.361 -39.7229 0.342427 438.361
2331 1 -31.1911 4.12397 434.121 -31.1911 4.12397 434.121
2297 1 -50.5235 1.79982 438.829 -50.5235 1.79982 438.829
2324 1 -34.3224 4.04132 438.13 -34.3224 4.04132 438.13
2306 1 -45.1227 1.07067 438.595 -45.1227 1.07067 438.595
2285 1 -56.7075 0.296012 440.067 -56.7075 0.296012 440.067
1462 1 -34.1746 1.36369 424.555 -34.1746 1.36369 424.555
1751 1 -32.6813 2.74359 429.338 -32.6813 2.74359 429.338
2329 1 -31.9744 1.88996 435.123 -31.9744 1.88996 435.123
2042 1 -31.9359 3.43373 431.73 -31.9359 3.43373 431.73
2041 1 -32.7192 1.1999 432.731 -32.7192 1.1999 432.731
2593 1 -45.9033 3.26256 439.599 -45.9033 3.26256 439.599
2328 1 -32.0127 0.345518 438.516 -32.0127 0.345518 438.516
2301 1 -48.2132 2.53102 439.214 -48.2132 2.53102 439.214
1466 1 -31.8265 3.63548 421.551 -31.8265 3.63548 421.551
2298 1 -50.4913 3.34774 435.433 -50.4913 3.34774 435.433
2321 1 -36.632 3.30955 437.743 -36.632 3.30955 437.743
2313 1 -41.2512 1.84595 436.972 -41.2512 1.84595 436.972
2294 1 -52.0534 3.30435 437.441 -52.0534 3.30435 437.441
2304 1 -46.6518 2.57462 437.206 -46.6518 2.57462 437.206
2300 1 -48.9619 1.8433 436.822 -48.9619 1.8433 436.822
2290 1 -54.3645 2.57379 437.056 -54.3645 2.57379 437.056
2318 1 -38.1599 0.385462 436.354 -38.1599 0.385462 436.354
2327 1 -32.7574 4.08315 436.125 -32.7574 4.08315 436.125
2004 1 -52.802 2.61699 435.049 -52.802 2.61699 435.049
2013 1 -47.3997 1.88683 434.814 -47.3997 1.88683 434.814
2288 1 -55.8944 4.07874 435.668 -55.8944 4.07874 435.668
2037 1 -35.0305 0.46929 432.344 -35.0305 0.46929 432.344
1739 1 -40.3639 4.29188 425.784 -40.3639 4.29188 425.784
1753 1 -31.898 0.549614 428.337 -31.898 0.549614 428.337
2307 1 -45.0896 2.61814 435.199 -45.0896 2.61814 435.199
2314 1 -40.4697 4.08126 435.969 -40.4697 4.08126 435.969
2040 1 -33.4645 0.509893 430.34 -33.4645 0.509893 430.34
2320 1 -37.3779 2.62045 435.351 -37.3779 2.62045 435.351
2292 1 -53.5833 0.381628 436.053 -53.5833 0.381628 436.053
2311 1 -42.7796 3.34964 435.584 -42.7796 3.34964 435.584
2302 1 -48.1809 4.0788 435.818 -48.1809 4.0788 435.818
2296 1 -51.2724 1.1123 436.437 -51.2724 1.1123 436.437
1463 1 -34.1403 2.90711 421.161 -34.1403 2.90711 421.161
2287 1 -55.9266 2.53096 439.063 -55.9266 2.53096 439.063
2291 1 -53.6151 3.26123 439.448 -53.6151 3.26123 439.448
2317 1 -38.9416 2.57775 437.358 -38.9416 2.57775 437.358
2038 1 -34.2476 2.70343 431.342 -34.2476 2.70343 431.342
2305 1 -45.8708 0.382679 436.202 -45.8708 0.382679 436.202
2332 1 -30.4468 0.386781 436.512 -30.4468 0.386781 436.512
1468 1 -31.0439 1.44074 420.55 -31.0439 1.44074 420.55
1454 1 -38.7998 4.3326 423.779 -38.7998 4.3326 423.779
1429 1 -52.6681 4.38316 421.466 -52.6681 4.38316 421.466
1133 1 -57.2882 2.92402 420.698 -57.2882 2.92402 420.698
1175 1 -32.5758 2.94541 419.159 -32.5758 2.94541 419.159
2616 1 -32.8309 0.992283 442.914 -32.8309 0.992283 442.914
2901 1 -34.3916 0.948553 444.922 -34.3916 0.948553 444.922
2907 1 -31.3039 3.91666 444.304 -31.3039 3.91666 444.304
3194 1 -32.115 0.133417 448.706 -32.115 0.133417 448.706
2587 1 -48.9936 0.295537 440.218 -48.9936 0.295537 440.218
2597 1 -43.5937 3.99436 439.984 -43.5937 3.99436 439.984
2584 1 -50.5538 0.252233 442.226 -50.5538 0.252233 442.226
2581 1 -52.1132 0.209386 444.233 -52.1132 0.209386 444.233
2868 1 -53.6719 0.167184 446.24 -53.6719 0.167184 446.24
2865 1 -55.2302 0.12579 448.247 -55.2302 0.12579 448.247
2601 1 -41.2845 0.298892 440.369 -41.2845 0.298892 440.369
2598 1 -42.8448 0.255115 442.377 -42.8448 0.255115 442.377
2885 1 -44.4036 0.211374 444.385 -44.4036 0.211374 444.385
2882 1 -45.9612 0.167947 446.394 -45.9612 0.167947 446.394
2879 1 -47.5176 0.125097 448.403 -47.5176 0.125097 448.403
2612 1 -35.1391 0.259953 442.529 -35.1391 0.259953 442.529
2898 1 -36.6993 0.216104 444.537 -36.6993 0.216104 444.537
2895 1 -38.2573 0.17199 446.546 -38.2573 0.17199 446.546
3180 1 -39.8134 0.127979 448.555 -39.8134 0.127979 448.555
2576 1 -55.1763 3.21856 441.455 -55.1763 3.21856 441.455
2574 1 -56.737 3.17649 443.462 -56.737 3.17649 443.462
2589 1 -47.4636 3.21894 441.607 -47.4636 3.21894 441.607
2586 1 -49.023 3.17557 443.615 -49.023 3.17557 443.615
2874 1 -50.5814 3.13267 445.623 -50.5814 3.13267 445.623
2871 1 -52.1391 3.09045 447.63 -52.1391 3.09045 447.63
3155 1 -53.6961 3.04907 449.637 -53.6961 3.04907 449.637
2607 1 -38.1948 3.26648 439.75 -38.1948 3.26648 439.75
2604 1 -39.756 3.22287 441.758 -39.756 3.22287 441.758
2600 1 -41.3156 3.179 443.766 -41.3156 3.179 443.766
2887 1 -42.8736 3.13518 445.775 -42.8736 3.13518 445.775
2884 1 -44.4302 3.09173 447.784 -44.4302 3.09173 447.784
3168 1 -45.9854 3.04894 449.793 -45.9854 3.04894 449.793
2900 1 -35.1711 3.14022 445.926 -35.1711 3.14022 445.926
2897 1 -36.7282 3.09596 447.936 -36.7282 3.09596 447.936
2582 1 -52.0845 1.75661 440.837 -52.0845 1.75661 440.837
2579 1 -53.6448 1.71384 442.844 -53.6448 1.71384 442.844
2866 1 -55.2046 1.6717 444.851 -55.2046 1.6717 444.851
2578 1 -54.3957 1.0261 440.452 -54.3957 1.0261 440.452
2595 1 -44.374 1.75877 440.988 -44.374 1.75877 440.988
2592 1 -45.9336 1.71509 442.996 -45.9336 1.71509 442.996
2880 1 -47.4921 1.67168 445.004 -47.4921 1.67168 445.004
2877 1 -49.0496 1.62878 447.013 -49.0496 1.62878 447.013
2873 1 -50.6061 1.58661 449.02 -50.6061 1.58661 449.02
2609 1 -36.6668 1.76318 441.139 -36.6668 1.76318 441.139
2606 1 -38.2276 1.71946 443.147 -38.2276 1.71946 443.147
2892 1 -39.7864 1.67548 445.156 -39.7864 1.67548 445.156
2890 1 -41.3435 1.63157 447.165 -41.3435 1.63157 447.165
3174 1 -42.899 1.58807 449.175 -42.899 1.58807 449.175
2618 1 -32.0497 3.22758 441.911 -32.0497 3.22758 441.911
2585 1 -49.7738 2.48757 441.222 -49.7738 2.48757 441.222
2583 1 -51.3336 2.44447 443.229 -51.3336 2.44447 443.229
2870 1 -52.8926 2.40192 445.237 -52.8926 2.40192 445.237
2867 1 -54.4511 2.3601 447.244 -54.4511 2.3601 447.244
2863 1 -56.0091 2.31917 449.25 -56.0091 2.31917 449.25
2599 1 -42.0648 2.49074 441.373 -42.0648 2.49074 441.373
2596 1 -43.6244 2.44695 443.381 -43.6244 2.44695 443.381
2883 1 -45.1826 2.40333 445.39 -45.1826 2.40333 445.39
2881 1 -46.7395 2.36016 447.399 -46.7395 2.36016 447.399
3164 1 -48.2954 2.31769 449.407 -48.2954 2.31769 449.407
2610 1 -35.9194 2.45181 443.532 -35.9194 2.45181 443.532
2896 1 -37.4785 2.40778 445.541 -37.4785 2.40778 445.541
2893 1 -39.0356 2.36368 447.55 -39.0356 2.36368 447.55
3178 1 -40.5907 2.31985 449.56 -40.5907 2.31985 449.56
2575 1 -55.9567 0.983712 442.459 -55.9567 0.983712 442.459
2591 1 -46.6836 1.02701 440.603 -46.6836 1.02701 440.603
2588 1 -48.2434 0.983479 442.611 -48.2434 0.983479 442.611
2876 1 -49.8023 0.94032 444.619 -49.8023 0.94032 444.619
2872 1 -51.3603 0.897737 446.626 -51.3603 0.897737 446.626
2869 1 -52.9177 0.855917 448.634 -52.9177 0.855917 448.634
2605 1 -38.9756 1.031 440.754 -38.9756 1.031 440.754
2602 1 -40.536 0.987218 442.762 -40.536 0.987218 442.762
2889 1 -42.0948 0.943339 444.771 -42.0948 0.943339 444.771
2886 1 -43.6521 0.899669 446.78 -43.6521 0.899669 446.78
3170 1 -45.2079 0.856509 448.789 -45.2079 0.856509 448.789
2899 1 -35.9499 0.904368 446.931 -35.9499 0.904368 446.931
3184 1 -37.5059 0.860142 448.941 -37.5059 0.860142 448.941
2580 1 -52.8647 3.94889 441.84 -52.8647 3.94889 441.84
2577 1 -54.4248 3.90641 443.848 -54.4248 3.90641 443.848
2864 1 -55.9843 3.86464 445.854 -55.9843 3.86464 445.854
2862 1 -56.7639 1.63034 446.857 -56.7639 1.63034 446.857
2594 1 -45.154 3.95064 441.992 -45.154 3.95064 441.992
2590 1 -46.713 3.90706 444 -46.713 3.90706 444
2878 1 -48.271 3.86388 446.008 -48.271 3.86388 446.008
2875 1 -49.8279 3.82132 448.016 -49.8279 3.82132 448.016
3159 1 -51.3841 3.77958 450.024 -51.3841 3.77958 450.024
2611 1 -35.8858 3.99856 440.136 -35.8858 3.99856 440.136
2608 1 -37.4474 3.9551 442.143 -37.4474 3.9551 442.143
2894 1 -39.0072 3.91121 444.151 -39.0072 3.91121 444.151
2891 1 -40.5652 3.86722 446.16 -40.5652 3.86722 446.16
2888 1 -42.1214 3.82348 448.17 -42.1214 3.82348 448.17
2904 1 -32.864 3.87274 446.312 -32.864 3.87274 446.312
2621 1 -30.4856 3.26997 439.906 -30.4856 3.26997 439.906
2617 1 -32.795 2.5382 439.519 -32.795 2.5382 439.519
2614 1 -34.3582 2.49539 441.525 -34.3582 2.49539 441.525
2908 1 -30.5572 0.177883 446.697 -30.5572 0.177883 446.697
2619 1 -31.2679 1.03519 440.908 -31.2679 1.03519 440.908
2906 1 -31.3365 2.36943 447.702 -31.3365 2.36943 447.702
2905 1 -32.0843 1.68106 445.308 -32.0843 1.68106 445.308
2620 1 -30.5229 1.72459 443.301 -30.5229 1.72459 443.301
3190 1 -34.4214 3.82836 448.321 -34.4214 3.82836 448.321
2902 1 -33.643 1.63685 447.316 -33.643 1.63685 447.316
2903 1 -33.6116 3.18423 443.918 -33.6116 3.18423 443.918
2615 1 -33.5769 0.303185 440.522 -33.5769 0.303185 440.522
2909 1 -29.7772 2.41361 445.693 -29.7772 2.41361 445.693
14 1 -51.045 0.420102 399.192 -51.045 4.84755 399.192
7 1 -55.5351 3.37102 398.536 -55.5351 3.37102 398.536
25 1 -43.2771 0.419771 399.273 -43.2771 4.84722 399.273
38 1 -35.4961 0.348153 399.381 -35.4961 4.77561 399.381
23 1 -44.8254 0.365955 401.266 -44.8254 4.79341 401.266
287 1 -47.9237 0.284075 405.255 -47.9237 4.71153 405.255
878 1 -38.7075 0.110311 413.594 -38.7075 4.53776 413.594
579 1 -44.8695 0.16078 411.43 -44.8695 4.58823 411.43
585 1 -41.7543 0.236331 407.418 -41.7543 4.66378 407.418
290 1 -46.3758 0.324265 403.254 -46.3758 4.75172 403.254
11 1 -52.5419 0.357402 401.133 -52.5419 4.78485 401.133
595 1 -35.5863 0.184785 409.587 -35.5863 4.61224 409.587
1134 1 -57.2573 0.0457864 417.3 -57.2573 4.47324 417.3
283 1 -49.4754 0.246246 407.26 -49.4754 4.6737 407.26
582 1 -43.3117 0.199085 409.424 -43.3117 4.62654 409.424
276 1 -54.098 0.338067 403.099 -54.098 4.76552 403.099
569 1 -51.0288 0.208474 409.266 -51.0288 4.63593 409.266
847 1 -55.6983 0.0879599 415.292 -55.6983 4.51541 415.292
272 1 -55.6371 0.302816 405.099 -55.6371 4.73027 405.099
35 1 -37.071 0.335149 401.394 -37.071 4.7626 401.394
598 1 -34.0252 0.220352 407.585 -34.0252 4.6478 407.585
850 1 -54.1403 0.12896 413.283 -54.1403 4.55641 413.283
304 1 -38.637 0.307618 403.406 -38.637 4.73507 403.406
301 1 -40.1966 0.27256 405.412 -40.1966 4.70001 405.412
314 1 -32.4631 0.254669 405.584 -32.4631 4.68212 405.584
864 1 -46.4278 0.12145 413.437 -46.4278 4.5489 413.437
566 1 -52.5835 0.169004 411.275 -52.5835 4.59646 411.275
1176 1 -32.5447 0.0603567 415.765 -32.5447 4.48781 415.765
85 1 -6.86651 1.13986 396.514 -6.86651 1.13986 396.514
58 1 -23.862 1.08116 398.042 -23.862 1.08116 398.042
45 1 -31.6694 1.15336 397.928 -31.6694 1.15336 397.928
49 1 -29.2884 1.82733 398.252 -29.2884 1.82733 398.252
72 1 -15.3956 3.34285 397.304 -15.3956 3.34285 397.304
80 1 -9.93915 2.56631 397.079 -9.93915 2.56631 397.079
75 1 -13.017 4.01809 397.63 -13.017 4.01809 397.63
83 1 -7.6213 3.34004 397.416 -7.6213 3.34004 397.416
52 1 -26.9835 2.60883 398.623 -26.9835 2.60883 398.623
61 1 -21.5579 1.86282 398.415 -21.5579 1.86282 398.415