ITEM: TIMESTEP
0
ITEM: NUMBER OF ATOMS
4630
ITEM: BOX BOUNDS xy xz yz pp pp pp
-5.4840988501799998e+01 9.7860020349999999e+01 0.0000000000000000e+00
0.0000000000000000e+00 4.4274527100805940e+00 0.0000000000000000e+00
3.8000000000000000e+02 5.0000000000000000e+02 0.0000000000000000e+00
ITEM: ATOMS id type x y z xu yu zu
27 1 -41.454 2.70615 397.617 -41.454 2.70615 397.617
36 1 -36.0326 1.95733 397.172 -36.0326 1.95733 397.172
31 1 -39.0588 3.37815 397.836 -39.0588 3.37815 397.836
22 1 -44.4955 4.13351 398.319 -44.4955 4.13351 398.319
20 1 -45.2147 1.91832 399.266 -45.2147 1.91832 399.266
40 1 -33.6396 2.63284 397.397 -33.6396 2.63284 397.397
34 1 -36.7372 4.15849 398.107 -36.7372 4.15849 398.107
17 1 -47.5393 1.15563 399.006 -47.5393 1.15563 399.006
9 1 -52.9011 1.83261 399.425 -52.9011 1.83261 399.425
43 1 -31.3194 3.41441 397.672 -31.3194 3.41441 397.672
12 1 -50.6181 2.68199 399.728 -50.6181 2.68199 399.728
29 1 -39.8057 1.15307 398.782 -39.8057 1.15307 398.782
853 1 -50.8722 3.09874 414.326 -50.8722 3.09874 414.326
873 1 -40.0976 1.62734 413.416 -40.0976 1.62734 413.416
865 1 -43.9033 0.857411 415.194 -43.9033 0.857411 415.194
1174 1 -31.5312 2.30306 415.624 -31.5312 2.30306 415.624
883 1 -34.703 0.888748 412.968 -34.703 0.888748 412.968
863 1 -45.4878 2.3646 413.869 -45.4878 2.3646 413.869
315 1 -31.2123 1.84986 401.03 -31.2123 1.84986 401.03
307 1 -35.7716 3.28865 403.824 -35.7716 3.28865 403.824
1150 1 -45.3842 0.813707 417.264 -45.3842 0.813707 417.264
855 1 -49.2895 1.59181 415.651 -49.2895 1.59181 415.651
310 1 -34.2911 3.32343 401.765 -34.2911 3.32343 401.765
871 1 -40.838 3.82023 414.45 -40.838 3.82023 414.45
16 1 -48.2708 3.35926 399.959 -48.2708 3.35926 399.959
309 1 -34.1783 1.78291 405.15 -34.1783 1.78291 405.15
1156 1 -42.3195 3.77771 416.519 -42.3195 3.77771 416.519
867 1 -43.1633 3.09254 414.159 -43.1633 3.09254 414.159
1159 1 -39.9946 0.0783825 416.81 -39.9946 4.50584 416.81
1168 1 -34.6009 3.76882 416.362 -34.6009 3.76882 416.362
1170 1 -33.8587 1.57561 415.329 -33.8587 1.57561 415.329
594 1 -34.9185 3.97861 406.182 -34.9185 3.97861 406.182
37 1 -35.1389 2.62221 399.417 -35.1389 2.62221 399.417
851 1 -51.611 0.862577 415.362 -51.611 0.862577 415.362
857 1 -48.5502 3.82783 414.615 -48.5502 3.82783 414.615
592 1 -35.6584 1.74625 407.214 -35.6584 1.74625 407.214
849 1 -52.3502 3.05353 416.399 -52.3502 3.05353 416.399
877 1 -37.7712 2.35481 413.708 -37.7712 2.35481 413.708
1143 1 -50.0292 3.78296 416.687 -50.0292 3.78296 416.687
1140 1 -51.5095 3.73691 418.759 -51.5095 3.73691 418.759
845 1 -54.6705 2.32428 416.111 -54.6705 2.32428 416.111
875 1 -38.5122 0.120434 414.742 -38.5122 4.54789 414.742
886 1 -33.2206 0.928406 410.903 -33.2206 0.928406 410.903
891 1 -30.1493 3.8883 410.168 -30.1493 3.8883 410.168
39 1 -33.5556 1.12407 400.73 -33.5556 1.12407 400.73
1177 1 -29.9463 0.796496 416.953 -29.9463 0.796496 416.953
1167 1 -35.3432 1.53437 417.395 -35.3432 1.53437 417.395
8 1 -53.6625 4.10094 400.488 -53.6625 4.10094 400.488
869 1 -41.5786 1.58539 415.484 -41.5786 1.58539 415.484
1136 1 -53.8298 3.00692 418.472 -53.8298 3.00692 418.472
1162 1 -38.4112 2.99899 418.136 -38.4112 2.99899 418.136
15 1 -49.0137 1.14233 401.037 -49.0137 1.14233 401.037
280 1 -50.4809 1.11133 403.102 -50.4809 1.11133 403.102
277 1 -51.9521 1.08447 405.168 -51.9521 1.08447 405.168
273 1 -53.4174 1.04399 407.242 -53.4174 1.04399 407.242
560 1 -54.8874 1.00282 409.316 -54.8874 1.00282 409.316
26 1 -41.2893 1.14098 400.861 -41.2893 1.14098 400.861
294 1 -42.7659 1.1112 402.941 -42.7659 1.1112 402.941
291 1 -44.2393 1.07342 405.011 -44.2393 1.07342 405.011
576 1 -45.7114 1.03325 407.079 -45.7114 1.03325 407.079
573 1 -47.1843 0.992699 409.148 -47.1843 0.992699 409.148
570 1 -48.6582 0.950553 411.219 -48.6582 0.950553 411.219
854 1 -50.1337 0.907125 413.29 -50.1337 0.907125 413.29
305 1 -36.5105 1.0571 404.854 -36.5105 1.0571 404.854
589 1 -37.9884 1.01974 406.92 -37.9884 1.01974 406.92
586 1 -39.4663 0.981045 408.987 -39.4663 0.981045 408.987
872 1 -40.9445 0.941092 411.055 -40.9445 0.941092 411.055
599 1 -31.7381 0.966858 408.839 -31.7381 0.966858 408.839
1152 1 -44.6436 3.04943 416.229 -44.6436 3.04943 416.229
19 1 -45.9614 4.10414 400.309 -45.9614 4.10414 400.309
286 1 -47.4269 4.06857 402.346 -47.4269 4.06857 402.346
282 1 -48.8901 4.03488 404.42 -48.8901 4.03488 404.42
279 1 -50.3604 4.0021 406.491 -50.3604 4.0021 406.491
565 1 -51.8297 3.96282 408.565 -51.8297 3.96282 408.565
563 1 -53.3018 3.92132 410.639 -53.3018 3.92132 410.639
846 1 97.925 3.87807 412.713 -54.776 3.87807 412.713
32 1 -38.2214 4.10275 400.151 -38.2214 4.10275 400.151
300 1 -39.699 4.06878 402.206 -39.699 4.06878 402.206
297 1 -41.1732 4.03226 404.27 -41.1732 4.03226 404.27
293 1 -42.6472 3.99461 406.337 -42.6472 3.99461 406.337
578 1 -44.1215 3.955 408.405 -44.1215 3.955 408.405
575 1 -45.5967 3.91406 410.474 -45.5967 3.91406 410.474
860 1 -47.0728 3.87159 412.544 -47.0728 3.87159 412.544
591 1 -36.3982 3.94093 408.247 -36.3982 3.94093 408.247
588 1 -37.8776 3.90188 410.314 -37.8776 3.90188 410.314
874 1 -39.3575 3.86162 412.381 -39.3575 3.86162 412.381
10 1 -52.0787 2.6105 401.782 -52.0787 2.6105 401.782
274 1 -53.5491 2.5977 403.839 -53.5491 2.5977 403.839
271 1 97.6953 2.55328 405.919 -55.0057 2.55328 405.919
24 1 -42.9045 2.65846 399.597 -42.9045 2.65846 399.597
21 1 -44.3712 2.61716 401.626 -44.3712 2.61716 401.626
288 1 -45.8342 2.57805 403.687 -45.8342 2.57805 403.687
285 1 -47.3016 2.53671 405.754 -47.3016 2.53671 405.754
571 1 -48.7723 2.49772 407.821 -48.7723 2.49772 407.821
568 1 -50.2438 2.45653 409.893 -50.2438 2.45653 409.893
852 1 -51.7175 2.41388 411.965 -51.7175 2.41388 411.965
848 1 -53.1932 2.36995 414.038 -53.1932 2.36995 414.038
306 1 -36.6253 2.59468 401.465 -36.6253 2.59468 401.465
302 1 -38.104 2.56187 403.526 -38.104 2.56187 403.526
299 1 -39.5798 2.52554 405.593 -39.5798 2.52554 405.593
583 1 -41.0559 2.48764 407.661 -41.0559 2.48764 407.661
581 1 -42.5325 2.44807 409.73 -42.5325 2.44807 409.73
866 1 -44.0097 2.40706 411.799 -44.0097 2.40706 411.799
880 1 -36.2899 2.39532 411.641 -36.2899 2.39532 411.641
312 1 -32.6969 1.81772 403.087 -32.6969 1.81772 403.087
13 1 -49.7411 3.33655 402.048 -49.7411 3.33655 402.048
278 1 -51.2167 3.31266 404.126 -51.2167 3.31266 404.126
275 1 -52.6838 3.27834 406.202 -52.6838 3.27834 406.202
562 1 -54.1517 3.23715 408.278 -54.1517 3.23715 408.278
1166 1 -36.0857 3.72716 418.428 -36.0857 3.72716 418.428
889 1 -30.8912 1.65532 411.2 -30.8912 1.65532 411.2
28 1 -40.5528 3.37006 399.858 -40.5528 3.37006 399.858
296 1 -42.0311 3.34095 401.912 -42.0311 3.34095 401.912
292 1 -43.5037 3.30646 403.978 -43.5037 3.30646 403.978
289 1 -44.9752 3.26731 406.045 -44.9752 3.26731 406.045
574 1 -46.4477 3.22693 408.114 -46.4477 3.22693 408.114
572 1 -47.9211 3.1856 410.183 -47.9211 3.1856 410.183
856 1 -49.3957 3.14271 412.254 -49.3957 3.14271 412.254
303 1 -37.2498 3.2522 405.887 -37.2498 3.2522 405.887
587 1 -38.7274 3.21422 407.953 -38.7274 3.21422 407.953
584 1 -40.2053 3.17493 410.021 -40.2053 3.17493 410.021
870 1 -41.6839 3.13437 412.09 -41.6839 3.13437 412.09
6 1 -54.4145 1.90828 401.461 -54.4145 1.90828 401.461
890 1 -30.0462 2.34312 413.56 -30.0462 2.34312 413.56
18 1 -46.6897 1.87341 401.323 -46.6897 1.87341 401.323
284 1 -48.1551 1.83915 403.389 -48.1551 1.83915 403.389
281 1 -49.6254 1.806 405.458 -49.6254 1.806 405.458
567 1 -51.095 1.76947 407.529 -51.095 1.76947 407.529
564 1 -52.5655 1.72852 409.603 -52.5655 1.72852 409.603
561 1 -54.0387 1.68626 411.676 -54.0387 1.68626 411.676
33 1 -37.4933 1.90741 399.147 -37.4933 1.90741 399.147
30 1 -38.9681 1.86955 401.168 -38.9681 1.86955 401.168
298 1 -40.4368 1.83617 403.233 -40.4368 1.83617 403.233
295 1 -41.9102 1.79991 405.302 -41.9102 1.79991 405.302
580 1 -43.3843 1.76122 407.37 -43.3843 1.76122 407.37
577 1 -44.859 1.72094 409.439 -44.859 1.72094 409.439
862 1 -46.3346 1.67927 411.509 -46.3346 1.67927 411.509
590 1 -37.1378 1.70785 409.28 -37.1378 1.70785 409.28
876 1 -38.6175 1.66817 411.348 -38.6175 1.66817 411.348
1163 1 -37.6692 0.806425 417.102 -37.6692 0.806425 417.102
1153 1 -43.8019 3.73407 418.589 -43.8019 3.73407 418.589
311 1 -33.4371 4.01455 404.119 -33.4371 4.01455 404.119
42 1 -32.0749 1.16315 398.711 -32.0749 1.16315 398.711
1135 1 -54.5702 0.769409 419.508 -54.5702 0.769409 419.508
1171 1 -33.0166 2.26218 417.689 -33.0166 2.26218 417.689
1139 1 -52.2502 1.49971 419.795 -52.2502 1.49971 419.795
601 1 -30.9967 3.19928 407.808 -30.9967 3.19928 407.808
313 1 -31.9526 4.04918 402.055 -31.9526 4.04918 402.055
858 1 -47.8113 1.63612 413.58 -47.8113 1.63612 413.58
868 1 -42.4235 0.899896 413.124 -42.4235 0.899896 413.124
1147 1 -47.7072 0.0847913 416.975 -47.7072 4.51224 416.975
593 1 -34.809 2.43472 409.575 -34.809 2.43472 409.575
308 1 -35.0317 1.09191 402.79 -35.0317 1.09191 402.79
861 1 -46.2273 0.129143 414.905 -46.2273 4.5566 414.905
1158 1 -40.7362 2.2707 417.844 -40.7362 2.2707 417.844
884 1 -33.9617 3.12244 411.936 -33.9617 3.12244 411.936
881 1 -35.4443 3.08225 414.001 -35.4443 3.08225 414.001
885 1 -33.1167 3.80963 414.296 -33.1167 3.80963 414.296
859 1 -46.967 2.32083 415.94 -46.967 2.32083 415.94
596 1 -33.3279 2.4728 407.51 -33.3279 2.4728 407.51
879 1 -36.1857 0.848058 415.035 -36.1857 0.848058 415.035
1172 1 -32.2739 0.0689941 416.657 -32.2739 4.49645 416.657
1154 1 -43.0606 1.5423 417.554 -43.0606 1.5423 417.554
887 1 -32.3748 1.61597 413.264 -32.3748 1.61597 413.264
597 1 -32.4794 3.16152 409.871 -32.4794 3.16152 409.871
1161 1 -39.2533 2.31326 415.776 -39.2533 2.31326 415.776
1138 1 -53.0898 0.816668 417.435 -53.0898 0.816668 417.435
1149 1 -46.1251 3.00516 418.3 -46.1251 3.00516 418.3
41 1 -32.8069 3.35705 399.714 -32.8069 3.35705 399.714
888 1 -31.633 3.84951 412.232 -31.633 3.84951 412.232
1165 1 -36.9274 3.04108 416.068 -36.9274 3.04108 416.068
1141 1 -50.7691 1.54636 417.723 -50.7691 1.54636 417.723
1145 1 -48.4476 2.27592 418.011 -48.4476 2.27592 418.011
600 1 -31.8462 2.50935 405.448 -31.8462 2.50935 405.448
1148 1 -46.8663 0.768878 419.335 -46.8663 0.768878 419.335
882 1 -35.5494 0.20144 410.608 -35.5494 4.62889 410.608
1157 1 -41.478 0.0353225 418.879 -41.478 4.46278 418.879
1144 1 -49.1883 0.0393113 419.047 -49.1883 4.46676 419.047
602 1 -30.255 1.0039 406.776 -30.255 1.0039 406.776
1755 1 -28.9214 2.81517 426.096 -28.9214 2.81517 426.096
1460 1 -33.6642 2.9067 422.114 -33.6642 2.9067 422.114
2308 1 -41.7674 3.32418 436.877 -41.7674 3.32418 436.877
2316 1 -37.2121 1.91296 434.062 -37.2121 1.91296 434.062
2312 1 -39.4472 4.0573 437.165 -39.4472 4.0573 437.165
1464 1 -31.3383 3.63498 422.409 -31.3383 3.63498 422.409
1461 1 -32.9203 0.714002 421.082 -32.9203 0.714002 421.082
2039 1 -31.074 3.41835 432.581 -31.074 3.41835 432.581
2613 1 -32.4847 1.82726 438.034 -32.4847 1.82726 438.034
1467 1 -29.0119 4.36299 422.705 -29.0119 4.36299 422.705
2603 1 -37.8717 2.55311 438.488 -37.8717 2.55311 438.488
1443 1 -42.9623 4.41872 420.948 -42.9623 4.41872 420.948
1748 1 -32.8275 3.59296 424.474 -32.8275 3.59296 424.474
2023 1 -39.5337 1.18105 433.773 -39.5337 1.18105 433.773
2310 1 -40.1915 1.81981 438.2 -40.1915 1.81981 438.2
1151 1 -44.5435 1.49813 419.624 -44.5435 1.49813 419.624
2303 1 -44.8309 0.352914 437.626 -44.8309 0.352914 437.626
2299 1 -47.1507 4.04706 437.34 -47.1507 4.04706 437.34
2033 1 -34.1439 0.452799 433.32 -34.1439 0.452799 433.32
1433 1 -48.3494 0.722971 421.406 -48.3494 0.722971 421.406
1430 1 -49.8336 0.676067 423.478 -49.8336 0.676067 423.478
1426 1 -51.3188 0.628319 425.55 -51.3188 0.628319 425.55
1713 1 -52.8048 0.579943 427.622 -52.8048 0.579943 427.622
1710 1 -54.2916 0.531182 429.694 -54.2916 0.531182 429.694
2330 1 -28.6679 2.60104 436.264 -28.6679 2.60104 436.264
1160 1 -39.1535 0.763878 419.169 -39.1535 0.763878 419.169
1447 1 -40.6386 0.720421 421.238 -40.6386 0.720421 421.238
1444 1 -42.1246 0.676046 423.307 -42.1246 0.676046 423.307
1730 1 -43.6112 0.630738 425.376 -43.6112 0.630738 425.376
1727 1 -45.0985 0.584505 427.446 -45.0985 0.584505 427.446
1724 1 -46.586 0.537394 429.517 -46.586 0.537394 429.517
2008 1 -48.0736 0.489509 431.588 -48.0736 0.489509 431.588
2006 1 -49.5609 0.441003 433.66 -49.5609 0.441003 433.66
1458 1 -34.4083 0.671786 423.147 -34.4083 0.671786 423.147
1743 1 -35.897 0.628891 425.213 -35.897 0.628891 425.213
1740 1 -37.3863 0.585244 427.28 -37.3863 0.585244 427.28
2026 1 -38.8759 0.540747 429.347 -38.8759 0.540747 429.347
2022 1 -40.3656 0.495301 431.415 -40.3656 0.495301 431.415
2019 1 -41.855 0.448838 433.485 -41.855 0.448838 433.485
2309 1 -41.0231 1.13426 435.842 -41.0231 1.13426 435.842
1137 1 -52.9912 3.6897 420.832 -52.9912 3.6897 420.832
1421 1 -54.4744 3.64156 422.905 -54.4744 3.64156 422.905
1439 1 -45.2853 3.68938 420.659 -45.2853 3.68938 420.659
1435 1 -46.7697 3.64365 422.73 -46.7697 3.64365 422.73
1432 1 -48.255 3.59696 424.801 -48.255 3.59696 424.801
1719 1 -49.7411 3.54943 426.872 -49.7411 3.54943 426.872
1716 1 -51.2277 3.50123 428.944 -51.2277 3.50123 428.944
2001 1 -52.7147 3.45258 431.016 -52.7147 3.45258 431.016
1998 1 -54.2019 3.40371 433.088 -54.2019 3.40371 433.088
2323 1 -32.5673 3.37546 434.645 -32.5673 3.37546 434.645
1453 1 -37.5713 3.68467 420.495 -37.5713 3.68467 420.495
1450 1 -39.0576 3.64136 422.563 -39.0576 3.64136 422.563
1446 1 -40.5448 3.59719 424.631 -40.5448 3.59719 424.631
1732 1 -42.0325 3.55212 426.7 -42.0325 3.55212 426.7
1729 1 -43.5205 3.50612 428.769 -43.5205 3.50612 428.769
2014 1 -45.0087 3.45922 430.839 -45.0087 3.45922 430.839
2011 1 -46.4967 3.41147 432.91 -46.4967 3.41147 432.91
1745 1 -34.3173 3.55034 426.539 -34.3173 3.55034 426.539
1742 1 -35.8076 3.50702 428.605 -35.8076 3.50702 428.605
2028 1 -37.2982 3.46287 430.671 -37.2982 3.46287 430.671
2025 1 -38.7887 3.41774 432.739 -38.7887 3.41774 432.739
1427 1 -51.4124 2.1828 422.155 -51.4124 2.1828 422.155
1424 1 -52.8966 2.13484 424.227 -52.8966 2.13484 424.227
1711 1 -54.382 2.08627 426.3 -54.382 2.08627 426.3
2322 1 -33.3138 1.1399 435.677 -33.3138 1.1399 435.677
1750 1 -31.2471 2.08677 425.8 -31.2471 2.08677 425.8
1155 1 -42.22 2.22715 419.913 -42.22 2.22715 419.913
1441 1 -43.7048 2.1826 421.983 -43.7048 2.1826 421.983
1438 1 -45.1903 2.13708 424.053 -45.1903 2.13708 424.053
1725 1 -46.6766 2.09061 426.123 -46.6766 2.09061 426.123
1722 1 -48.1634 2.04329 428.195 -48.1634 2.04329 428.195
1718 1 -49.6506 1.99526 430.266 -49.6506 1.99526 430.266
2003 1 -51.1378 1.94669 432.338 -51.1378 1.94669 432.338
2000 1 -52.6249 1.89781 434.41 -52.6249 1.89781 434.41
1459 1 -34.5027 2.22054 419.755 -34.5027 2.22054 419.755
1455 1 -35.9895 2.17817 421.821 -35.9895 2.17817 421.821
1452 1 -37.4771 2.13504 423.888 -37.4771 2.13504 423.888
1737 1 -38.9653 2.09111 425.955 -38.9653 2.09111 425.955
1735 1 -40.454 2.04631 428.023 -40.454 2.04631 428.023
2020 1 -41.9429 2.00057 430.092 -41.9429 2.00057 430.092
2017 1 -43.4317 1.95388 432.162 -43.4317 1.95388 432.162
2034 1 -34.2294 2.00152 429.93 -34.2294 2.00152 429.93
2031 1 -35.7209 1.95775 431.996 -35.7209 1.95775 431.996
2029 1 -36.4665 4.14922 433.029 -36.4665 4.14922 433.029
1146 1 -47.6077 2.95978 420.371 -47.6077 2.95978 420.371
1431 1 -49.0914 2.91336 422.442 -49.0914 2.91336 422.442
1428 1 -50.5761 2.86601 424.514 -50.5761 2.86601 424.514
1715 1 -52.0617 2.81792 426.586 -52.0617 2.81792 426.586
1712 1 -53.5481 2.76932 428.658 -53.5481 2.76932 428.658
1747 1 -32.738 2.04447 427.865 -32.738 2.04447 427.865
1449 1 -39.8959 2.95599 420.204 -39.8959 2.95599 420.204
1445 1 -41.3815 2.91208 422.272 -41.3815 2.91208 422.272
1442 1 -42.8678 2.86724 424.341 -42.8678 2.86724 424.341
1728 1 -44.3548 2.82146 426.411 -44.3548 2.82146 426.411
1726 1 -45.8422 2.77478 428.481 -45.8422 2.77478 428.481
2010 1 -47.3298 2.72727 430.552 -47.3298 2.72727 430.552
2007 1 -48.8173 2.67905 432.624 -48.8173 2.67905 432.624
1456 1 -35.1526 2.86415 424.18 -35.1526 2.86415 424.18
1741 1 -36.6416 2.82089 426.246 -36.6416 2.82089 426.246
1738 1 -38.1311 2.77683 428.313 -38.1311 2.77683 428.313
2024 1 -39.6208 2.73187 430.381 -39.6208 2.73187 430.381
2021 1 -41.1104 2.68593 432.45 -41.1104 2.68593 432.45
2035 1 -33.3977 2.68832 432.287 -33.3977 2.68832 432.287
1754 1 -29.7568 2.12855 423.737 -29.7568 2.12855 423.737
1423 1 -53.7326 1.45201 421.868 -53.7326 1.45201 421.868
2044 1 -28.0026 1.95481 431.845 -28.0026 1.95481 431.845
1437 1 -46.0274 1.45291 421.694 -46.0274 1.45291 421.694
1434 1 -47.5123 1.4067 423.765 -47.5123 1.4067 423.765
1721 1 -48.998 1.35956 425.836 -48.998 1.35956 425.836
1717 1 -50.4843 1.31168 427.908 -50.4843 1.31168 427.908
1714 1 -51.9712 1.26322 429.98 -51.9712 1.26322 429.98
1999 1 -53.4583 1.21443 432.052 -53.4583 1.21443 432.052
1164 1 -36.8284 1.49229 419.462 -36.8284 1.49229 419.462
1451 1 -38.3144 1.44939 421.529 -38.3144 1.44939 421.529
1448 1 -39.8011 1.40566 423.597 -39.8011 1.40566 423.597
1734 1 -41.2886 1.36104 425.665 -41.2886 1.36104 425.665
1731 1 -42.7765 1.31551 427.734 -42.7765 1.31551 427.734
2016 1 -44.2646 1.26906 429.804 -44.2646 1.26906 429.804
2012 1 -45.7527 1.22172 431.875 -45.7527 1.22172 431.875
2009 1 -47.2405 1.17359 433.946 -47.2405 1.17359 433.946
1746 1 -33.5723 1.35801 425.506 -33.5723 1.35801 425.506
1744 1 -35.0624 1.31505 427.572 -35.0624 1.31505 427.572
2030 1 -36.5529 1.27133 429.638 -36.5529 1.27133 429.638
2027 1 -38.0435 1.22671 431.705 -38.0435 1.22671 431.705
2325 1 -31.8207 1.1833 433.613 -31.8207 1.1833 433.613
1749 1 -31.9925 4.27942 426.832 -31.9925 4.27942 426.832
1425 1 -52.1543 4.37264 423.191 -52.1543 4.37264 423.191
1736 1 -39.7096 4.28255 426.989 -39.7096 4.28255 426.989
1142 1 -49.9294 2.22988 420.083 -49.9294 2.22988 420.083
1720 1 -48.907 4.23308 429.23 -48.907 4.23308 429.23
2005 1 -50.3942 4.18476 431.302 -50.3942 4.18476 431.302
2002 1 -51.8814 4.136 433.374 -51.8814 4.136 433.374
1169 1 -33.7596 0.0277266 418.722 -33.7596 4.45518 418.722
1723 1 -47.42 4.28078 427.159 -47.42 4.28078 427.159
1440 1 -44.4475 4.37368 423.018 -44.4475 4.37368 423.018
1733 1 -41.1985 4.23728 429.058 -41.1985 4.23728 429.058
2018 1 -42.6874 4.19107 431.127 -42.6874 4.19107 431.127
2015 1 -44.1759 4.14391 433.197 -44.1759 4.14391 433.197
2036 1 -33.4836 4.23681 428.897 -33.4836 4.23681 428.897
2032 1 -34.9751 4.19347 430.962 -34.9751 4.19347 430.962
2326 1 -30.9912 1.87081 435.97 -30.9912 1.87081 435.97
1752 1 -30.5019 4.32144 424.769 -30.5019 4.32144 424.769
1457 1 -35.246 4.41317 420.788 -35.246 4.41317 420.788
2043 1 -28.8341 1.26756 429.486 -28.8341 1.26756 429.486
2286 1 -54.1114 1.84884 436.482 -54.1114 1.84884 436.482
2319 1 -34.806 1.09525 437.744 -34.806 1.09525 437.744
1436 1 -45.9334 4.32768 425.088 -45.9334 4.32768 425.088
1422 1 -53.6391 4.32435 425.263 -53.6391 4.32435 425.263
1173 1 -31.433 0.755575 419.017 -31.433 0.755575 419.017
2293 1 -50.2136 1.07566 438.09 -50.2136 1.07566 438.09
2289 1 -52.5339 0.342975 437.804 -52.5339 0.342975 437.804
2295 1 -48.6363 3.99775 439.412 -48.6363 3.99775 439.412
1465 1 -30.594 1.44205 421.377 -30.594 1.44205 421.377
2315 1 -37.1268 0.362733 437.454 -37.1268 0.362733 437.454
2331 1 -28.7497 4.14781 432.875 -28.7497 4.14781 432.875
2297 1 -47.8937 1.80872 438.376 -47.8937 1.80872 438.376
2324 1 -31.7381 4.06293 437.002 -31.7381 4.06293 437.002
2306 1 -42.5112 1.08636 437.913 -42.5112 1.08636 437.913
2285 1 -54.019 0.293955 439.876 -54.019 0.293955 439.876
1462 1 -32.0828 1.40032 423.441 -32.0828 1.40032 423.441
1751 1 -30.4131 2.77346 428.159 -30.4131 2.77346 428.159
2329 1 -29.4969 1.9132 433.907 -29.4969 1.9132 433.907
2042 1 -29.5806 3.46045 430.518 -29.5806 3.46045 430.518
2041 1 -30.3273 1.22576 431.549 -30.3273 1.22576 431.549
2593 1 -43.2547 3.27575 438.949 -43.2547 3.27575 438.949
2328 1 -29.4155 0.366267 437.295 -29.4155 0.366267 437.295
2301 1 -45.5741 2.54212 438.662 -45.5741 2.54212 438.662
1466 1 -29.8498 3.67645 420.345 -29.8498 3.67645 420.345
2298 1 -47.9841 3.363 434.982 -47.9841 3.363 434.982
2321 1 -34.06 3.33147 436.71 -34.06 3.33147 436.71
2313 1 -38.7025 1.86701 436.131 -38.7025 1.86701 436.131
2294 1 -49.4707 3.314 437.054 -49.4707 3.314 437.054
2304 1 -44.0874 2.59097 436.59 -44.0874 2.59097 436.59
2300 1 -46.4074 1.85781 436.304 -46.4074 1.85781 436.304
2290 1 -51.7909 2.58126 436.768 -51.7909 2.58126 436.768
2318 1 -35.6358 0.408398 435.386 -35.6358 0.408398 435.386
2327 1 -30.2441 4.10585 434.938 -30.2441 4.10585 434.938
2004 1 -50.3044 2.63031 434.696 -50.3044 2.63031 434.696
2013 1 -44.92 1.90626 434.232 -44.92 1.90626 434.232
2288 1 -53.3682 4.08705 435.446 -53.3682 4.08705 435.446
2037 1 -32.6515 0.496151 431.255 -32.6515 0.496151 431.255
1739 1 -38.2212 4.3269 424.921 -38.2212 4.3269 424.921
1753 1 -29.6671 0.580639 427.128 -29.6671 0.580639 427.128
2307 1 -42.5994 2.63894 434.52 -42.5994 2.63894 434.52
2314 1 -37.9574 4.10387 435.096 -37.9574 4.10387 435.096
2040 1 -31.1591 0.538694 429.191 -31.1591 0.538694 429.191
2320 1 -34.89 2.64447 434.353 -34.89 2.64447 434.353
2292 1 -51.0478 0.392078 435.732 -51.0478 0.392078 435.732
2311 1 -40.2785 3.37152 434.808 -40.2785 3.37152 434.808
2302 1 -45.6638 4.09586 435.268 -45.6638 4.09586 435.268
2296 1 -48.7275 1.12483 436.018 -48.7275 1.12483 436.018
1463 1 -32.1765 2.94859 420.049 -32.1765 2.94859 420.049
2287 1 -53.2765 2.53216 438.84 -53.2765 2.53216 438.84
2291 1 -50.9562 3.26474 439.126 -50.9562 3.26474 439.126
2317 1 -36.3815 2.59946 436.42 -36.3815 2.59946 436.42
2038 1 -31.9053 2.73124 430.223 -31.9053 2.73124 430.223
2305 1 -43.3435 0.401348 435.555 -43.3435 0.401348 435.555
2332 1 -27.9203 0.40812 435.233 -27.9203 0.40812 435.233
1468 1 -29.1058 1.48325 419.314 -29.1058 1.48325 419.314
1454 1 -36.7332 4.37043 422.854 -36.7332 4.37043 422.854
1429 1 -50.6707 4.42019 421.119 -50.6707 4.42019 421.119
1175 1 -30.6896 2.98985 417.985 -30.6896 2.98985 417.985
2616 1 -30.0823 1.01112 441.716 -30.0823 1.01112 441.716
2901 1 -31.574 0.965725 443.782 -31.574 0.965725 443.782
2907 1 -28.5089 3.93501 443.04 -28.5089 3.93501 443.04
3194 1 -29.1733 0.149452 447.465 -29.1733 0.149452 447.465
2587 1 -46.3168 0.30372 439.698 -46.3168 0.30372 439.698
2597 1 -40.9354 4.00947 439.236 -40.9354 4.00947 439.236
2584 1 -47.8008 0.254052 441.771 -47.8008 0.254052 441.771
2581 1 -49.2829 0.204276 443.844 -49.2829 0.204276 443.844
2868 1 -50.7631 0.154806 445.918 -50.7631 0.154806 445.918
2865 1 -52.2415 0.106062 447.991 -52.2415 0.106062 447.991
2601 1 -38.616 0.315677 439.523 -38.616 0.315677 439.523
2598 1 -40.103 0.267255 441.594 -40.103 0.267255 441.594
2885 1 -41.5873 0.217683 443.667 -41.5873 0.217683 443.667
2882 1 -43.0685 0.167365 445.741 -43.0685 0.167365 445.741
2879 1 -44.5467 0.116847 447.816 -44.5467 0.116847 447.816
2612 1 -32.4023 0.278515 441.425 -32.4023 0.278515 441.425
2898 1 -33.8921 0.231865 443.493 -33.8921 0.231865 443.493
2895 1 -35.3783 0.183214 445.564 -35.3783 0.183214 445.564
3180 1 -36.8601 0.132868 447.638 -36.8601 0.132868 447.638
2576 1 -52.4404 3.21549 441.199 -52.4404 3.21549 441.199
2574 1 -53.9233 3.16657 443.271 -53.9233 3.16657 443.271
2589 1 -44.7401 3.22645 441.021 -44.7401 3.22645 441.021
2586 1 -46.2233 3.17657 443.094 -46.2233 3.17657 443.094
2874 1 -47.7041 3.12653 445.168 -47.7041 3.12653 445.168
2871 1 -49.1828 3.07679 447.242 -49.1828 3.07679 447.242
3155 1 -50.6594 3.02784 449.316 -50.6594 3.02784 449.316
2607 1 -35.5515 3.28611 438.777 -35.5515 3.28611 438.777
2604 1 -37.0409 3.23919 440.846 -37.0409 3.23919 440.846
2600 1 -38.5277 3.19073 442.917 -38.5277 3.19073 442.917
2887 1 -40.0113 3.14097 444.99 -40.0113 3.14097 444.99
2884 1 -41.4913 3.09037 447.065 -41.4913 3.09037 447.065
3168 1 -42.9679 3.03958 449.14 -42.9679 3.03958 449.14
2900 1 -32.3185 3.1559 444.817 -32.3185 3.1559 444.817
2897 1 -33.8043 3.1071 446.888 -33.8043 3.1071 446.888
2582 1 -49.3785 1.75926 440.448 -49.3785 1.75926 440.448
2579 1 -50.8617 1.70976 442.521 -50.8617 1.70976 442.521
2866 1 -52.3433 1.66057 444.595 -52.3433 1.66057 444.595
2578 1 -51.6985 1.02636 440.162 -51.6985 1.02636 440.162
2595 1 -41.6787 1.7714 440.271 -41.6787 1.7714 440.271
2592 1 -43.1635 1.72197 442.344 -43.1635 1.72197 442.344
2880 1 -44.6458 1.67188 444.417 -44.6458 1.67188 444.417
2877 1 -46.1254 1.6216 446.492 -46.1254 1.6216 446.492
2873 1 -47.6024 1.57165 448.566 -47.6024 1.57165 448.566
2609 1 -33.9767 1.78222 440.101 -33.9767 1.78222 440.101
2606 1 -35.4663 1.73544 442.17 -35.4663 1.73544 442.17
2892 1 -36.9528 1.6869 444.241 -36.9528 1.6869 444.241
2890 1 -38.4355 1.63688 446.314 -38.4355 1.63688 446.314
3174 1 -39.9143 1.58591 448.389 -39.9143 1.58591 448.389
2618 1 -29.3354 3.24675 440.684 -29.3354 3.24675 440.684
2585 1 -47.059 2.49265 440.735 -47.059 2.49265 440.735
2583 1 -48.5421 2.44288 442.808 -48.5421 2.44288 442.808
2870 1 -50.0233 2.3932 444.881 -50.0233 2.3932 444.881
2867 1 -51.5025 2.34404 446.955 -51.5025 2.34404 446.955
2863 1 -52.9801 2.29581 449.028 -52.9801 2.29581 449.028
2599 1 -39.3598 2.50535 440.559 -39.3598 2.50535 440.559
2596 1 -40.8455 2.45632 442.63 -40.8455 2.45632 442.63
2883 1 -42.3283 2.40631 444.704 -42.3283 2.40631 444.704
2881 1 -43.808 2.35582 446.778 -43.808 2.35582 446.778
3164 1 -45.2846 2.30543 448.853 -45.2846 2.30543 448.853
2610 1 -33.1476 2.46917 442.459 -33.1476 2.46917 442.459
2896 1 -34.6357 2.42151 444.528 -34.6357 2.42151 444.528
2893 1 -36.1198 2.37195 446.601 -36.1198 2.37195 446.601
3178 1 -37.5993 2.32097 448.675 -37.5993 2.32097 448.675
2575 1 -53.182 0.977243 442.235 -53.182 0.977243 442.235
2591 1 -43.9976 1.03747 439.985 -43.9976 1.03747 439.985
2588 1 -45.4819 0.98783 442.057 -45.4819 0.98783 442.057
2876 1 -46.964 0.937815 444.131 -46.964 0.937815 444.131
2872 1 -48.4437 0.887867 446.205 -48.4437 0.887867 446.205
2869 1 -49.9213 0.838463 448.279 -49.9213 0.838463 448.279
2605 1 -36.2965 1.04912 439.812 -36.2965 1.04912 439.812
2602 1 -37.7847 1.00142 441.882 -37.7847 1.00142 441.882
2889 1 -39.2699 0.952262 443.954 -39.2699 0.952262 443.954
2886 1 -40.7518 0.902007 446.027 -40.7518 0.902007 446.027
3170 1 -42.2301 0.851225 448.103 -42.2301 0.851225 448.103
2899 1 -33.062 0.918047 445.852 -33.062 0.918047 445.852
3184 1 -34.5453 0.868219 447.925 -34.5453 0.868219 447.925
2580 1 -50.1203 3.94822 441.485 -50.1203 3.94822 441.485
2577 1 -51.6027 3.89883 443.558 -51.6027 3.89883 443.558
2864 1 -53.0835 3.84994 445.631 -53.0835 3.84994 445.631
2862 1 -53.8233 1.61207 446.667 -53.8233 1.61207 446.667
2594 1 -42.4214 3.96052 441.307 -42.4214 3.96052 441.307
2590 1 -43.905 3.91071 443.38 -43.905 3.91071 443.38
2878 1 -45.3859 3.86046 445.454 -45.3859 3.86046 445.454
2875 1 -46.8642 3.81028 447.529 -46.8642 3.81028 447.529
3159 1 -48.34 3.7607 449.603 -48.34 3.7607 449.603
2611 1 -33.2309 4.01868 439.068 -33.2309 4.01868 439.068
2608 1 -34.7218 3.97278 441.135 -34.7218 3.97278 441.135
2894 1 -36.21 3.92511 443.205 -36.21 3.92511 443.205
2891 1 -37.6946 3.87577 445.277 -37.6946 3.87577 445.277
2888 1 -39.1754 3.82519 447.351 -39.1754 3.82519 447.351
2904 1 -30.001 3.88988 445.106 -30.001 3.88988 445.106
2621 1 -27.8403 3.28928 438.621 -27.8403 3.28928 438.621
2617 1 -30.1628 2.55864 438.327 -30.1628 2.55864 438.327
2614 1 -31.6563 2.51482 440.392 -31.6563 2.51482 440.392
2908 1 -27.683 0.195792 445.397 -27.683 0.195792 445.397
2619 1 -28.588 1.05448 439.652 -28.588 1.05448 439.652
2906 1 -28.4288 2.38673 446.43 -28.4288 2.38673 446.43
2905 1 -29.2554 1.69903 444.073 -29.2554 1.69903 444.073
2620 1 -27.7617 1.74297 442.008 -27.7617 1.74297 442.008
3190 1 -31.4889 3.84215 447.176 -31.4889 3.84215 447.176
2902 1 -30.7456 1.65262 446.141 -30.7456 1.65262 446.141
2903 1 -30.8286 3.20242 442.749 -30.8286 3.20242 442.749
2615 1 -30.9098 0.323212 439.359 -30.9098 0.323212 439.359
2909 1 -26.9362 2.4316 444.365 -26.9362 2.4316 444.365
14 1 -49.9331 0.48081 398.788 -49.9331 4.90826 398.788
7 1 -54.4466 3.43225 398.318 -54.4466 3.43225 398.318
25 1 -42.1663 0.479217 398.552 -42.1663 4.90667 398.552
38 1 -34.3836 0.407869 398.344 -34.3836 4.83532 398.344
23 1 -43.6333 0.425532 400.606 -43.6333 4.85298 400.606
287 1 -46.5679 0.342558 404.719 -46.5679 4.77001 404.719
878 1 -37.0305 0.161466 412.674 -37.0305 4.58892 412.674
579 1 -43.271 0.214034 410.765 -43.271 4.64149 410.765
585 1 -40.3177 0.293183 406.627 -40.3177 4.72064 406.627
290 1 -45.1022 0.383551 402.656 -45.1022 4.811 402.656
11 1 -51.3491 0.418073 400.79 -51.3491 4.84553 400.79
595 1 -34.0685 0.240229 408.543 -34.0685 4.66768 408.543
283 1 -48.037 0.303334 406.786 -48.037 4.73079 406.786
582 1 -41.7941 0.254343 408.696 -41.7941 4.6818 408.696
276 1 -52.8222 0.398185 402.819 -52.8222 4.82564 402.819
569 1 -49.5079 0.263584 408.856 -49.5079 4.69104 408.856
847 1 -53.9316 0.133614 415.074 -53.9316 4.56107 415.074
272 1 -54.277 0.361539 404.882 -54.277 4.78899 404.882
35 1 -35.8773 0.394714 400.418 -35.8773 4.82217 400.418
598 1 -32.5871 0.277599 406.479 -32.5871 4.70505 406.479
850 1 -52.4551 0.178382 413.001 -52.4551 4.60583 413.001
304 1 -37.3623 0.366531 402.492 -37.3623 4.79398 402.492
301 1 -38.841 0.330613 404.56 -38.841 4.75807 404.56
314 1 -31.1045 0.31348 404.417 -31.1045 4.74093 404.417
864 1 -44.7486 0.172293 412.834 -44.7486 4.59975 412.834
566 1 -50.9803 0.22157 410.928 -50.9803 4.64902 410.928
1176 1 -30.7887 0.109476 414.592 -30.7887 4.53693 414.592
85 1 -5.85383 1.22946 394.341 -5.85383 1.22946 394.341
58 1 -22.8019 1.14584 396.538 -22.8019 1.14584 396.538
45 1 -30.6137 1.21334 396.738 -30.6137 1.21334 396.738
49 1 -28.2209 1.88879 396.965 -28.2209 1.88879 396.965
72 1 -14.359 3.41642 395.464 -14.359 3.41642 395.464
80 1 -8.90706 2.65096 395.024 -8.90706 2.65096 395.024
75 1 -11.9684 4.09633 395.696 -11.9684 4.09633 395.696
83 1 -6.57604 3.4286 395.27 -6.57604 3.4286 395.27
52 1 -25.9009 2.67075 397.242 -25.9009 2.67075 397.242
61 1 -20.4823 1.92895 396.817 -20.4823 1.92895 396.817
63 1 -19.7751 4.15558 395.884 -19.7751 4.15558 395.884
87 1 -4.21284 4.11111 395.516 -4.21284 4.11111 395.516
70 1 -15.0641 1.1899 396.397 -15.0641 1.1899 396.397
47 1 -28.966 4.09119 397.911 -28.966 4.09119 397.911
912 1 -16.9079 1.59253 413.005 -16.9079 1.59253 413.005