ITEM: TIMESTEP
0
ITEM: NUMBER OF ATOMS
4630
ITEM: BOX BOUNDS xy xz yz pp pp pp
-6.3240988501799997e+01 1.0626002035000000e+02 0.0000000000000000e+00
0.0000000000000000e+00 4.4274527100805940e+00 0.0000000000000000e+00
3.8000000000000000e+02 5.0000000000000000e+02 0.0000000000000000e+00
ITEM: ATOMS id type x y z xu yu zu
27 1 -45.5375 2.14413 399.497 -45.5375 2.14413 399.497
36 1 -39.9383 1.40238 399.554 -39.9383 1.40238 399.554
31 1 -43.1472 2.83797 399.936 -43.1472 2.83797 399.936
22 1 -48.731 3.58981 399.904 -48.731 3.58981 399.904
20 1 -49.6045 1.36823 400.753 -49.6045 1.36823 400.753
40 1 -37.5502 2.09765 399.996 -37.5502 2.09765 399.996
34 1 -40.7893 3.60081 400.391 -40.7893 3.60081 400.391
17 1 -51.9664 0.617028 400.304 -51.9664 0.617028 400.304
9 1 -57.5295 1.30693 400.216 -57.5295 1.30693 400.216
43 1 -35.1934 2.86125 400.453 -35.1934 2.86125 400.453
12 1 -55.1996 2.11983 400.7 -55.1996 2.11983 400.7
5 1 -59.9115 0.635767 399.754 -59.9115 0.635767 399.754
29 1 -44.0075 0.609268 400.792 -44.0075 0.609268 400.792
853 1 -56.96 2.74847 414.899 -56.96 2.74847 414.899
873 1 -45.7731 1.27256 415.024 -45.7731 1.27256 415.024
865 1 -49.865 0.525967 416.402 -49.865 0.525967 416.402
1174 1 -37.1738 1.98963 417.968 -37.1738 1.98963 417.968
883 1 -40.1785 0.533273 415.087 -40.1785 0.533273 415.087
863 1 -51.3679 2.0115 414.961 -51.3679 2.0115 414.961
315 1 -35.4175 1.34514 403.748 -35.4175 1.34514 403.748
307 1 -40.371 2.80726 406.068 -40.371 2.80726 406.068
1150 1 -51.59 0.512953 418.282 -51.59 0.512953 418.282
855 1 -55.4575 1.26323 416.34 -55.4575 1.26323 416.34
310 1 -38.6447 2.82069 404.193 -38.6447 2.82069 404.193
871 1 -46.6363 3.48021 415.964 -46.6363 3.48021 415.964
16 1 -52.8246 2.81552 401.162 -52.8246 2.81552 401.162
309 1 -38.8675 1.32164 407.506 -38.8675 1.32164 407.506
1156 1 -48.3621 3.46778 417.843 -48.3621 3.46778 417.843
867 1 -49.0021 2.74598 415.463 -49.0021 2.74598 415.463
1159 1 -45.9965 4.2021 418.344 -45.9965 4.2021 418.344
1168 1 -40.4024 3.46297 418.406 -40.4024 3.46297 418.406
1170 1 -39.5393 1.25534 417.467 -39.5393 1.25534 417.467
594 1 -39.7307 3.5292 408.447 -39.7307 3.5292 408.447
37 1 -39.2833 2.09793 401.836 -39.2833 2.09793 401.836
851 1 -57.8221 0.527956 415.839 -57.8221 0.527956 415.839
857 1 -54.5954 3.48371 415.4 -54.5954 3.48371 415.4
592 1 -40.5937 1.30932 409.387 -40.5937 1.30932 409.387
849 1 -58.6842 2.73494 416.78 -58.6842 2.73494 416.78
877 1 -43.4073 2.0067 415.525 -43.4073 2.0067 415.525
1143 1 -56.3197 3.4702 417.28 -56.3197 3.4702 417.28
1140 1 -58.0439 3.45672 419.161 -58.0439 3.45672 419.161
845 1 -61.0487 1.99976 416.279 -61.0487 1.99976 416.279
875 1 -44.2704 4.21436 416.465 -44.2704 4.21436 416.465
886 1 -38.4522 0.545533 413.207 -38.4522 0.545533 413.207
891 1 -35.2236 3.49969 412.768 -35.2236 3.49969 412.768
39 1 -37.786 0.606962 403.241 -37.786 0.606962 403.241
1177 1 -35.6716 0.504121 419.409 -35.6716 0.504121 419.409
1167 1 -41.2654 1.24313 419.346 -41.2654 1.24313 419.346
8 1 -58.404 3.56292 401.176 -58.404 3.56292 401.176
869 1 -47.4993 1.26033 416.903 -47.4993 1.26033 416.903
1136 1 -60.4085 2.72154 418.661 -60.4085 2.72154 418.661
1162 1 -44.4939 2.71644 419.785 -44.4939 2.71644 419.785
15 1 -53.6922 0.614687 402.148 -53.6922 0.614687 402.148
280 1 -55.4214 0.600586 404.006 -55.4214 0.600586 404.006
277 1 -57.1582 0.599621 405.875 -57.1582 0.599621 405.875
273 1 -58.8833 0.586224 407.752 -58.8833 0.586224 407.752
560 1 -60.6054 0.570577 409.634 -60.6054 0.570577 409.634
557 1 -62.3289 0.556379 411.516 -62.3289 0.556379 411.516
26 1 -45.737 0.61834 402.679 -45.737 0.61834 402.679
294 1 -47.467 0.607746 404.567 -47.467 0.607746 404.567
291 1 -49.1936 0.591019 406.445 -49.1936 0.591019 406.445
576 1 -50.92 0.577501 408.323 -50.92 0.577501 408.323
573 1 -52.6477 0.566637 410.2 -52.6477 0.566637 410.2
570 1 -54.3737 0.554776 412.078 -54.3737 0.554776 412.078
854 1 -56.098 0.541515 413.958 -56.098 0.541515 413.958
305 1 -41.2329 0.58768 407.007 -41.2329 0.58768 407.007
589 1 -42.9594 0.575221 408.886 -42.9594 0.575221 408.886
586 1 -44.6858 0.56273 410.766 -44.6858 0.56273 410.766
872 1 -46.4124 0.550483 412.645 -46.4124 0.550483 412.645
599 1 -36.7259 0.557874 411.328 -36.7259 0.557874 411.328
1132 1 -62.7731 1.98647 418.161 -62.7731 1.98647 418.161
4 1 -60.1751 3.58451 402.977 -60.1751 3.58451 402.977
268 1 -61.8871 3.55601 404.863 -61.8871 3.55601 404.863
1152 1 -50.7276 2.73324 417.342 -50.7276 2.73324 417.342
19 1 -50.4781 3.55865 401.684 -50.4781 3.55865 401.684
286 1 -52.1949 3.54903 403.55 -52.1949 3.54903 403.55
282 1 -53.9205 3.54308 405.437 -53.9205 3.54308 405.437
279 1 -55.6531 3.53754 407.314 -55.6531 3.53754 407.314
565 1 -57.3795 3.52657 409.193 -57.3795 3.52657 409.193
563 1 -59.1028 3.51245 411.075 -59.1028 3.51245 411.075
846 1 -60.8267 3.49853 412.957 -60.8267 3.49853 412.957
32 1 -42.5102 3.56791 402.264 -42.5102 3.56791 402.264
300 1 -44.2389 3.56008 404.134 -44.2389 3.56008 404.134
297 1 -45.9658 3.54727 406.008 -45.9658 3.54727 406.008
293 1 -47.6913 3.53404 407.886 -47.6913 3.53404 407.886
578 1 -49.4177 3.52108 409.764 -49.4177 3.52108 409.764
575 1 -51.1449 3.50924 411.642 -51.1449 3.50924 411.642
860 1 -52.8708 3.49693 413.52 -52.8708 3.49693 413.52
591 1 -41.457 3.51679 410.326 -41.457 3.51679 410.326
588 1 -43.1833 3.50449 412.206 -43.1833 3.50449 412.206
874 1 -44.9098 3.49232 414.085 -44.9098 3.49232 414.085
10 1 -56.9187 2.07369 402.573 -56.9187 2.07369 402.573
274 1 -58.6664 2.08964 404.427 -58.6664 2.08964 404.427
271 1 -60.3864 2.07238 406.308 -60.3864 2.07238 406.308
558 1 -62.1072 2.05547 408.193 -62.1072 2.05547 408.193
24 1 -47.2593 2.09835 401.272 -47.2593 2.09835 401.272
21 1 -48.9765 2.09021 403.124 -48.9765 2.09021 403.124
288 1 -50.6945 2.0742 405.006 -50.6945 2.0742 405.006
285 1 -52.4211 2.06098 406.884 -52.4211 2.06098 406.884
571 1 -54.1506 2.05172 408.758 -54.1506 2.05172 408.758
568 1 -55.8766 2.0404 410.636 -55.8766 2.0404 410.636
852 1 -57.6005 2.0269 412.517 -57.6005 2.0269 412.517
848 1 -59.3244 2.01322 414.398 -59.3244 2.01322 414.398
306 1 -41.0121 2.08449 403.687 -41.0121 2.08449 403.687
302 1 -42.7364 2.07273 405.565 -42.7364 2.07273 405.565
299 1 -44.4622 2.06101 407.445 -44.4622 2.06101 407.445
583 1 -46.1884 2.04844 409.326 -46.1884 2.04844 409.326
581 1 -47.9151 2.03594 411.204 -47.9151 2.03594 411.204
866 1 -49.642 2.02393 413.082 -49.642 2.02393 413.082
880 1 -41.6808 2.01887 413.646 -41.6808 2.01887 413.646
312 1 -37.1421 1.33361 405.625 -37.1421 1.33361 405.625
2 1 -61.691 0.649625 401.541 -61.691 0.649625 401.541
13 1 -54.5496 2.81836 403.053 -54.5496 2.81836 403.053
278 1 -56.2885 2.81365 404.935 -56.2885 2.81365 404.935
275 1 -58.0213 2.80749 406.81 -58.0213 2.80749 406.81
562 1 -59.7438 2.79193 408.693 -59.7438 2.79193 408.693
559 1 -61.4669 2.77705 410.575 -61.4669 2.77705 410.575
1166 1 -42.1284 3.45072 420.286 -42.1284 3.45072 420.286
889 1 -36.0867 1.27982 413.708 -36.0867 1.27982 413.708
28 1 -44.8778 2.8378 401.777 -44.8778 2.8378 401.777
296 1 -46.6075 2.82575 403.629 -46.6075 2.82575 403.629
292 1 -48.3313 2.8131 405.505 -48.3313 2.8131 405.505
289 1 -50.0561 2.79802 407.385 -50.0561 2.79802 407.385
574 1 -51.7838 2.78595 409.262 -51.7838 2.78595 409.262
572 1 -53.511 2.77474 411.139 -53.511 2.77474 411.139
856 1 -55.2359 2.76199 413.018 -55.2359 2.76199 413.018
303 1 -42.0967 2.79486 407.946 -42.0967 2.79486 407.946
587 1 -43.8227 2.78261 409.826 -43.8227 2.78261 409.826
584 1 -45.5491 2.77028 411.705 -45.5491 2.77028 411.705
870 1 -47.2758 2.75817 413.584 -47.2758 2.75817 413.584
6 1 -59.299 1.36932 402.05 -59.299 1.36932 402.05
270 1 -61.0301 1.35533 403.916 -61.0301 1.35533 403.916
267 1 -62.7462 1.33361 405.808 -62.7462 1.33361 405.808
890 1 -35.4476 2.00186 416.088 -35.4476 2.00186 416.088
18 1 -51.3276 1.34258 402.631 -51.3276 1.34258 402.631
284 1 -53.055 1.33513 404.506 -53.055 1.33513 404.506
281 1 -54.7877 1.32721 406.38 -54.7877 1.32721 406.38
567 1 -56.5174 1.31936 408.254 -56.5174 1.31936 408.254
564 1 -58.2413 1.30588 410.135 -58.2413 1.30588 410.135
561 1 -59.9647 1.29171 412.016 -59.9647 1.29171 412.016
844 1 -61.6888 1.27803 413.898 -61.6888 1.27803 413.898
33 1 -41.6659 1.35845 401.325 -41.6659 1.35845 401.325
30 1 -43.3805 1.34627 403.181 -43.3805 1.34627 403.181
298 1 -45.1025 1.33959 405.065 -45.1025 1.33959 405.065
295 1 -46.8281 1.32718 406.946 -46.8281 1.32718 406.946
580 1 -48.5543 1.31351 408.825 -48.5543 1.31351 408.825
577 1 -50.2814 1.30128 410.703 -50.2814 1.30128 410.703
862 1 -52.0081 1.28946 412.58 -52.0081 1.28946 412.58
590 1 -42.32 1.29695 411.266 -42.32 1.29695 411.266
876 1 -44.0465 1.28467 413.145 -44.0465 1.28467 413.145
1163 1 -43.6309 0.508887 418.845 -43.6309 0.508887 418.845
1153 1 -50.0873 3.45488 419.723 -50.0873 3.45488 419.723
311 1 -38.004 3.54205 406.568 -38.004 3.54205 406.568
42 1 -36.0703 0.618679 401.387 -36.0703 0.618679 401.387
1135 1 -61.2707 0.501151 419.601 -61.2707 0.501151 419.601
1171 1 -38.9 1.97742 419.847 -38.9 1.97742 419.847
1139 1 -58.9061 1.23629 420.102 -58.9061 1.23629 420.102
601 1 -35.8629 2.77774 410.388 -35.8629 2.77774 410.388
313 1 -36.2758 3.55524 404.687 -36.2758 3.55524 404.687
858 1 -53.7332 1.27665 414.46 -53.7332 1.27665 414.46
868 1 -48.1391 0.538411 414.523 -48.1391 0.538411 414.523
1147 1 -53.955 4.20541 417.781 -53.955 4.20541 417.781
843 1 -62.551 3.48506 414.839 -62.551 3.48506 414.839
593 1 -39.9545 2.03115 411.767 -39.9545 2.03115 411.767
308 1 -39.5074 0.599862 405.124 -39.5074 0.599862 405.124
861 1 -52.2304 4.21874 415.901 -52.2304 4.21874 415.901
1158 1 -46.8594 1.98212 419.284 -46.8594 1.98212 419.284
884 1 -39.3153 2.75312 414.147 -39.3153 2.75312 414.147
881 1 -41.0416 2.7409 416.026 -41.0416 2.7409 416.026
885 1 -38.6761 3.47516 416.527 -38.6761 3.47516 416.527
859 1 -53.0927 1.99838 416.841 -53.0927 1.99838 416.841
596 1 -38.2283 2.04346 409.887 -38.2283 2.04346 409.887
879 1 -41.9048 0.521091 416.966 -41.9048 0.521091 416.966
1172 1 -38.0369 4.19725 418.907 -38.0369 4.19725 418.907
1154 1 -49.2248 1.24766 418.783 -49.2248 1.24766 418.783
887 1 -37.813 1.26755 415.587 -37.813 1.26755 415.587
597 1 -37.589 2.7654 412.267 -37.589 2.7654 412.267
1161 1 -45.1335 1.99454 417.404 -45.1335 1.99454 417.404
1138 1 -59.5463 0.514495 417.72 -59.5463 0.514495 417.72
1149 1 -52.4523 2.72003 419.222 -52.4523 2.72003 419.222
41 1 -36.9154 2.82823 402.324 -36.9154 2.82823 402.324
888 1 -36.9499 3.4874 414.648 -36.9499 3.4874 414.648
1165 1 -42.7679 2.72873 417.905 -42.7679 2.72873 417.905
1141 1 -57.1818 1.24972 418.221 -57.1818 1.24972 418.221
1145 1 -54.8172 1.98495 418.721 -54.8172 1.98495 418.721
600 1 -36.5025 2.05575 408.007 -36.5025 2.05575 408.007
1148 1 -53.3146 0.499623 420.162 -53.3146 0.499623 420.162
882 1 -40.8177 4.23871 412.706 -40.8177 4.23871 412.706
1157 1 -47.722 4.18948 420.224 -47.722 4.18948 420.224
1144 1 -55.6793 4.19194 419.662 -55.6793 4.19194 419.662
602 1 -34.9996 0.570275 409.448 -34.9996 0.570275 409.448
1131 1 -62.9951 0.487891 421.482 -62.9951 0.487891 421.482
1755 1 -35.4798 2.65819 428.43 -35.4798 2.65819 428.43
1460 1 -39.9865 2.68713 424.107 -39.9865 2.68713 424.107
2308 1 -49.6946 3.3312 437.77 -49.6946 3.3312 437.77
2316 1 -44.7439 1.87216 435.449 -44.7439 1.87216 435.449
2312 1 -47.3302 4.06617 438.27 -47.3302 4.06617 438.27
1464 1 -37.6214 3.42156 424.608 -37.6214 3.42156 424.608
1461 1 -39.1236 0.479608 423.167 -39.1236 0.479608 423.167
2039 1 -38.2904 3.35482 434.57 -38.2904 3.35482 434.57
2613 1 -40.2372 1.84346 439.772 -40.2372 1.84346 439.772
1467 1 -35.2563 4.156 425.109 -35.2563 4.156 425.109
2603 1 -45.8278 2.5808 439.711 -45.8278 2.5808 439.711
1443 1 -49.447 4.1765 422.104 -49.447 4.1765 422.104
1748 1 -39.3469 3.4091 426.488 -39.3469 3.4091 426.488
2023 1 -47.1084 1.13726 434.949 -47.1084 1.13726 434.949
2310 1 -48.1922 1.84585 439.211 -48.1922 1.84585 439.211
1151 1 -50.9497 1.23457 420.663 -50.9497 1.23457 420.663
2303 1 -52.921 0.375846 438.21 -52.921 0.375846 438.21
2299 1 -55.2855 4.06823 437.71 -55.2855 4.06823 437.71
2033 1 -41.5172 0.399813 435.01 -41.5172 0.399813 435.01
1433 1 -55.039 0.48621 422.043 -55.039 0.48621 422.043
1430 1 -56.7634 0.472805 423.924 -56.7634 0.472805 423.924
1426 1 -58.4877 0.459428 425.804 -58.4877 0.459428 425.804
1713 1 -60.212 0.446079 427.685 -60.212 0.446079 427.685
1710 1 -61.9363 0.432756 429.566 -61.9363 0.432756 429.566
2330 1 -36.1485 2.59138 438.392 -36.1485 2.59138 438.392
1160 1 -45.3567 0.496462 420.725 -45.3567 0.496462 420.725
1447 1 -47.082 0.483714 422.604 -47.082 0.483714 422.604
1444 1 -48.8069 0.470696 424.485 -48.8069 0.470696 424.485
1730 1 -50.5315 0.457513 426.365 -50.5315 0.457513 426.365
1727 1 -52.2559 0.444244 428.246 -52.2559 0.444244 428.246
1724 1 -53.9803 0.430933 430.126 -53.9803 0.430933 430.126
2008 1 -55.7045 0.417605 432.007 -55.7045 0.417605 432.007
2006 1 -57.4286 0.404275 433.888 -57.4286 0.404275 433.888
1458 1 -40.8493 0.467158 425.047 -40.8493 0.467158 425.047
1743 1 -42.5745 0.454501 426.927 -42.5745 0.454501 426.927
1740 1 -44.2995 0.441643 428.807 -44.2995 0.441643 428.807
2026 1 -46.0242 0.428629 430.687 -46.0242 0.428629 430.687
2022 1 -47.7486 0.415507 432.568 -47.7486 0.415507 432.568
2019 1 -49.4729 0.402317 434.448 -49.4729 0.402317 434.448
2309 1 -48.8326 1.12408 436.83 -48.8326 1.12408 436.83
1137 1 -59.7683 3.44333 421.042 -59.7683 3.44333 421.042
1421 1 -61.4927 3.43001 422.923 -61.4927 3.43001 422.923
1439 1 -51.812 3.44167 421.603 -51.812 3.44167 421.603
1435 1 -53.5365 3.42833 423.484 -53.5365 3.42833 423.484
1432 1 -55.2609 3.41495 425.364 -55.2609 3.41495 425.364
1719 1 -56.9852 3.40158 427.245 -56.9852 3.40158 427.245
1716 1 -58.7095 3.38822 429.126 -58.7095 3.38822 429.126
2001 1 -60.4337 3.37488 431.007 -60.4337 3.37488 431.007
1998 1 -62.1579 3.36156 432.888 -62.1579 3.36156 432.888
2323 1 -40.015 3.34188 436.45 -40.015 3.34188 436.45
1453 1 -43.8541 3.43829 422.165 -43.8541 3.43829 422.165
1450 1 -45.5794 3.42559 424.045 -45.5794 3.42559 424.045
1446 1 -47.3043 3.41264 425.925 -47.3043 3.41264 425.925
1732 1 -49.029 3.39952 427.806 -49.029 3.39952 427.806
1729 1 -50.7535 3.38631 429.686 -50.7535 3.38631 429.686
2014 1 -52.4778 3.37304 431.567 -52.4778 3.37304 431.567
2011 1 -54.202 3.35974 433.448 -54.202 3.35974 433.448
1745 1 -41.0722 3.39646 428.367 -41.0722 3.39646 428.367
1742 1 -42.7971 3.38363 430.248 -42.7971 3.38363 430.248
2028 1 -44.5218 3.37064 432.128 -44.5218 3.37064 432.128
2025 1 -46.2463 3.35756 434.008 -46.2463 3.35756 434.008
1427 1 -58.2659 1.95808 422.483 -58.2659 1.95808 422.483
1424 1 -59.9902 1.94472 424.364 -59.9902 1.94472 424.364
1711 1 -61.7145 1.9314 426.245 -61.7145 1.9314 426.245
2322 1 -40.8772 1.12164 437.391 -40.8772 1.12164 437.391
1750 1 -37.8447 1.92363 427.928 -37.8447 1.92363 427.928
1155 1 -48.5846 1.96931 421.164 -48.5846 1.96931 421.164
1441 1 -50.3094 1.9562 423.044 -50.3094 1.9562 423.044
1438 1 -52.034 1.94294 424.924 -52.034 1.94294 424.924
1725 1 -53.7584 1.92961 426.805 -53.7584 1.92961 426.805
1722 1 -55.4828 1.91627 428.686 -55.4828 1.91627 428.686
1718 1 -57.207 1.90292 430.566 -57.207 1.90292 430.566
2003 1 -58.9312 1.88957 432.447 -58.9312 1.88957 432.447
2000 1 -60.6553 1.87625 434.328 -60.6553 1.87625 434.328
1459 1 -40.626 1.96515 421.726 -40.626 1.96515 421.726
1455 1 -42.3517 1.95271 423.606 -42.3517 1.95271 423.606
1452 1 -44.0769 1.94003 425.486 -44.0769 1.94003 425.486
1737 1 -45.8019 1.92713 427.366 -45.8019 1.92713 427.366
1735 1 -47.5266 1.91407 429.246 -47.5266 1.91407 429.246
2020 1 -49.251 1.90091 431.127 -49.251 1.90091 431.127
2017 1 -50.9753 1.88768 433.008 -50.9753 1.88768 433.008
2034 1 -41.2948 1.89818 431.688 -41.2948 1.89818 431.688
2031 1 -43.0195 1.88522 433.569 -43.0195 1.88522 433.569
2029 1 -43.8817 4.09243 434.509 -43.8817 4.09243 434.509
1146 1 -54.1768 2.70664 421.102 -54.1768 2.70664 421.102
1431 1 -55.9012 2.69323 422.983 -55.9012 2.69323 422.983
1428 1 -57.6256 2.67984 424.864 -57.6256 2.67984 424.864
1715 1 -59.3499 2.66648 426.745 -59.3499 2.66648 426.745
1712 1 -61.0742 2.65314 428.626 -61.0742 2.65314 428.626
1708 1 -62.7984 2.63983 430.507 -62.7984 2.63983 430.507
1747 1 -39.5699 1.91099 429.808 -39.5699 1.91099 429.808
1449 1 -46.2194 2.70385 421.664 -46.2194 2.70385 421.664
1445 1 -47.9445 2.69096 423.544 -47.9445 2.69096 423.544
1442 1 -49.6692 2.67785 425.425 -49.6692 2.67785 425.425
1728 1 -51.3937 2.66461 427.305 -51.3937 2.66461 427.305
1726 1 -53.1181 2.65132 429.186 -53.1181 2.65132 429.186
2010 1 -54.8424 2.638 431.067 -54.8424 2.638 431.067
2007 1 -56.5666 2.62467 432.948 -56.5666 2.62467 432.948
1456 1 -41.7119 2.67458 425.987 -41.7119 2.67458 425.987
1741 1 -43.4371 2.66182 427.867 -43.4371 2.66182 427.867
1738 1 -45.1619 2.64888 429.747 -45.1619 2.64888 429.747
2024 1 -46.8864 2.6358 431.627 -46.8864 2.6358 431.627
2021 1 -48.6108 2.62264 433.508 -48.6108 2.62264 433.508
2035 1 -40.655 2.62003 434.069 -40.655 2.62003 434.069
1754 1 -36.1191 1.9361 426.049 -36.1191 1.9361 426.049
1423 1 -60.6305 1.22294 421.983 -60.6305 1.22294 421.983
1420 1 -62.3549 1.20965 423.864 -62.3549 1.20965 423.864
2044 1 -35.0635 1.88227 434.131 -35.0635 1.88227 434.131
1437 1 -52.6743 1.22128 422.543 -52.6743 1.22128 422.543
1434 1 -54.3987 1.20791 424.424 -54.3987 1.20791 424.424
1721 1 -56.1231 1.19454 426.305 -56.1231 1.19454 426.305
1717 1 -57.8474 1.18117 428.185 -57.8474 1.18117 428.185
1714 1 -59.5716 1.16782 430.066 -59.5716 1.16782 430.066
1999 1 -61.2958 1.15449 431.947 -61.2958 1.15449 431.947
1997 1 -63.0199 1.14119 433.828 -63.0199 1.14119 433.828
1164 1 -42.9913 1.23081 421.225 -42.9913 1.23081 421.225
1451 1 -44.7168 1.21825 423.105 -44.7168 1.21825 423.105
1448 1 -46.4419 1.20541 424.985 -46.4419 1.20541 424.985
1734 1 -48.1667 1.19237 426.865 -48.1667 1.19237 426.865
1731 1 -49.8913 1.1792 428.746 -49.8913 1.1792 428.746
2016 1 -51.6156 1.16595 430.627 -51.6156 1.16595 430.627
2012 1 -53.3399 1.15267 432.507 -53.3399 1.15267 432.507
2009 1 -55.064 1.13936 434.388 -55.064 1.13936 434.388
1746 1 -40.2096 1.18908 427.427 -40.2096 1.18908 427.427
1744 1 -41.9347 1.17634 429.307 -41.9347 1.17634 429.307
2030 1 -43.6595 1.16342 431.188 -43.6595 1.16342 431.188
2027 1 -45.3841 1.15039 433.068 -45.3841 1.15039 433.068
2325 1 -39.1528 1.13463 435.51 -39.1528 1.13463 435.51
1749 1 -38.7073 4.13106 428.868 -38.7073 4.13106 428.868
1425 1 -59.128 4.16512 423.423 -59.128 4.16512 423.423
1736 1 -46.6643 4.13435 428.306 -46.6643 4.13435 428.306
1142 1 -56.5415 1.97149 420.602 -56.5415 1.97149 420.602
1720 1 -56.3449 4.12332 429.626 -56.3449 4.12332 429.626
2005 1 -58.0691 4.10997 431.507 -58.0691 4.10997 431.507
2002 1 -59.7932 4.09663 433.388 -59.7932 4.09663 433.388
1169 1 -39.763 4.18502 420.787 -39.763 4.18502 420.787
1723 1 -54.6206 4.13667 427.745 -54.6206 4.13667 427.745
1440 1 -51.1717 4.16331 423.984 -51.1717 4.16331 423.984
1733 1 -48.3888 4.12123 430.187 -48.3888 4.12123 430.187
2018 1 -50.1132 4.10803 432.067 -50.1132 4.10803 432.067
2015 1 -51.8374 4.09478 433.948 -51.8374 4.09478 433.948
2036 1 -40.4324 4.11833 430.748 -40.4324 4.11833 430.748
2032 1 -42.1572 4.10544 432.629 -42.1572 4.10544 432.629
2326 1 -38.5129 1.85651 437.891 -38.5129 1.85651 437.891
1752 1 -36.9819 4.14361 426.989 -36.9819 4.14361 426.989
1457 1 -41.4889 4.17268 422.666 -41.4889 4.17268 422.666
2043 1 -35.703 1.16024 431.75 -35.703 1.16024 431.75
2286 1 -62.3793 1.86294 436.209 -62.3793 1.86294 436.209
2319 1 -42.6015 1.10856 439.271 -42.6015 1.10856 439.271
1436 1 -52.8962 4.15001 425.865 -52.8962 4.15001 425.865
1422 1 -60.8524 4.15178 425.304 -60.8524 4.15178 425.304
1173 1 -37.3977 0.4919 421.288 -37.3977 0.4919 421.288
2293 1 -58.512 1.11276 438.15 -58.512 1.11276 438.15
2289 1 -60.8766 0.377647 437.65 -60.8766 0.377647 437.65
2295 1 -57.0094 4.05496 439.591 -57.0094 4.05496 439.591
1465 1 -36.7584 1.214 423.668 -36.7584 1.214 423.668
2315 1 -44.9658 0.373646 438.771 -44.9658 0.373646 438.771
2331 1 -35.9259 4.0896 435.071 -35.9259 4.0896 435.071
2297 1 -56.1475 1.84787 438.65 -56.1475 1.84787 438.65
2324 1 -39.375 4.06372 438.832 -39.375 4.06372 438.832
2306 1 -50.5566 1.11087 438.71 -50.5566 1.11087 438.71
2285 1 -62.6005 0.364365 439.531 -62.6005 0.364365 439.531
1462 1 -38.4842 1.20163 425.548 -38.4842 1.20163 425.548
1751 1 -37.2051 2.64563 430.309 -37.2051 2.64563 430.309
2329 1 -36.7883 1.86945 436.011 -36.7883 1.86945 436.011
2042 1 -36.5655 3.36762 432.69 -36.5655 3.36762 432.69
2041 1 -37.428 1.14751 433.63 -37.428 1.14751 433.63
2593 1 -51.4186 3.31799 439.651 -51.4186 3.31799 439.651
2328 1 -37.0107 0.371158 439.332 -37.0107 0.371158 439.332
2301 1 -53.783 2.58295 439.15 -53.783 2.58295 439.15
1466 1 -35.8955 3.43387 422.729 -35.8955 3.43387 422.729
2298 1 -55.9261 3.34643 435.329 -55.9261 3.34643 435.329
2321 1 -41.7394 3.32883 438.331 -41.7394 3.32883 438.331
2313 1 -46.4681 1.85902 437.33 -46.4681 1.85902 437.33
2294 1 -57.6501 3.33313 437.209 -57.6501 3.33313 437.209
2304 1 -52.0591 2.59619 437.27 -52.0591 2.59619 437.27
2300 1 -54.4235 1.86114 436.769 -54.4235 1.86114 436.769
2290 1 -60.0146 2.59802 436.709 -60.0146 2.59802 436.709
2318 1 -43.2416 0.386764 436.89 -43.2416 0.386764 436.89
2327 1 -37.6506 4.07672 436.951 -37.6506 4.07672 436.951
2004 1 -58.2906 2.61134 434.828 -58.2906 2.61134 434.828
2013 1 -52.6995 1.87442 434.888 -52.6995 1.87442 434.888
2288 1 -61.5173 4.08332 435.269 -61.5173 4.08332 435.269
2037 1 -39.7926 0.412758 433.129 -39.7926 0.412758 433.129
1739 1 -44.9395 4.14733 426.426 -44.9395 4.14733 426.426
1753 1 -36.3425 0.438207 429.369 -36.3425 0.438207 429.369
2307 1 -50.335 2.60943 435.389 -50.335 2.60943 435.389
2314 1 -45.6061 4.07932 436.39 -45.6061 4.07932 436.39
2040 1 -38.0677 0.425564 431.249 -38.0677 0.425564 431.249
2320 1 -42.3795 2.60703 435.95 -42.3795 2.60703 435.95
2292 1 -59.1526 0.390952 435.769 -59.1526 0.390952 435.769
2311 1 -47.9705 3.3444 435.889 -47.9705 3.3444 435.889
2302 1 -53.5615 4.08151 435.829 -53.5615 4.08151 435.829
2296 1 -56.7881 1.12605 436.269 -56.7881 1.12605 436.269
1463 1 -38.2607 2.69949 422.227 -38.2607 2.69949 422.227
2287 1 -61.7386 2.58473 438.59 -61.7386 2.58473 438.59
2291 1 -59.374 3.31984 439.09 -59.374 3.31984 439.09
2317 1 -44.1037 2.59394 437.83 -44.1037 2.59394 437.83
2038 1 -38.9302 2.63291 432.189 -38.9302 2.63291 432.189
2305 1 -51.197 0.389089 436.329 -51.197 0.389089 436.329
2332 1 -35.2862 0.384116 437.452 -35.2862 0.384116 437.452
1709 1 -62.5767 4.13848 427.185 -62.5767 4.13848 427.185
1468 1 -35.0325 1.22626 421.789 -35.0325 1.22626 421.789
1454 1 -43.2144 4.16012 424.546 -43.2144 4.16012 424.546
1429 1 -57.4037 4.1785 421.542 -57.4037 4.1785 421.542
1133 1 -62.1329 2.70824 420.542 -62.1329 2.70824 420.542
1175 1 -36.5347 2.71174 420.348 -36.5347 2.71174 420.348
2616 1 -38.0948 1.07993 443.594 -38.0948 1.07993 443.594
2901 1 -39.8187 1.06678 445.475 -39.8187 1.06678 445.475
2907 1 -36.5927 4.02204 445.035 -36.5927 4.02204 445.035
3194 1 -37.676 0.303204 449.297 -37.676 0.303204 449.297
2587 1 -54.6449 0.362606 440.091 -54.6449 0.362606 440.091
2597 1 -49.0542 4.05298 440.151 -49.0542 4.05298 440.151
2584 1 -56.3687 0.349382 441.972 -56.3687 0.349382 441.972
2581 1 -58.0924 0.336184 443.853 -58.0924 0.336184 443.853
2868 1 -59.8161 0.323014 445.734 -59.8161 0.323014 445.734
2865 1 -61.5397 0.309867 447.614 -61.5397 0.309867 447.614
2601 1 -46.6898 0.360488 440.651 -46.6898 0.360488 440.651
2598 1 -48.4137 0.34732 442.532 -48.4137 0.34732 442.532
2885 1 -50.1374 0.334166 444.413 -50.1374 0.334166 444.413
2882 1 -51.861 0.321055 446.294 -51.861 0.321055 446.294
2879 1 -53.5846 0.308008 448.175 -53.5846 0.308008 448.175
2612 1 -40.459 0.344988 443.093 -40.459 0.344988 443.093
2898 1 -42.1828 0.331838 444.974 -42.1828 0.331838 444.974
2895 1 -43.9064 0.318682 446.855 -43.9064 0.318682 446.855
3180 1 -45.6299 0.305549 448.736 -45.6299 0.305549 448.736
2576 1 -61.0978 3.30657 440.971 -61.0978 3.30657 440.971
2574 1 -62.8216 3.29332 442.852 -62.8216 3.29332 442.852
2589 1 -53.1424 3.30479 441.532 -53.1424 3.30479 441.532
2586 1 -54.8662 3.29161 443.413 -54.8662 3.29161 443.413
2874 1 -56.5898 3.27846 445.293 -56.5898 3.27846 445.293
2871 1 -58.3134 3.26536 447.174 -58.3134 3.26536 447.174
3155 1 -60.0369 3.2523 449.055 -60.0369 3.2523 449.055
2607 1 -43.4635 3.31572 440.212 -43.4635 3.31572 440.212
2604 1 -45.1875 3.30257 442.092 -45.1875 3.30257 442.092
2600 1 -46.9112 3.28941 443.973 -46.9112 3.28941 443.973
2887 1 -48.6349 3.27627 445.854 -48.6349 3.27627 445.854
2884 1 -50.3584 3.26317 447.735 -50.3584 3.26317 447.735
3168 1 -52.0819 3.25014 449.616 -52.0819 3.25014 449.616
2900 1 -40.6805 3.27393 446.415 -40.6805 3.27393 446.415
2897 1 -42.404 3.26078 448.296 -42.404 3.26078 448.296
2582 1 -57.8713 1.8346 440.531 -57.8713 1.8346 440.531
2579 1 -59.5951 1.82136 442.412 -59.5951 1.82136 442.412
2866 1 -61.3188 1.80814 444.293 -61.3188 1.80814 444.293
2578 1 -60.2359 1.09947 440.031 -60.2359 1.09947 440.031
2595 1 -49.9161 1.83267 441.092 -49.9161 1.83267 441.092
2592 1 -51.6399 1.81949 442.972 -51.6399 1.81949 442.972
2880 1 -53.3636 1.80635 444.853 -53.3636 1.80635 444.853
2877 1 -55.0872 1.79326 446.734 -55.0872 1.79326 446.734
2873 1 -56.8107 1.78024 448.615 -56.8107 1.78024 448.615
2609 1 -41.9612 1.83035 441.652 -41.9612 1.83035 441.652
2606 1 -43.6851 1.8172 443.533 -43.6851 1.8172 443.533
2892 1 -45.4088 1.80405 445.414 -45.4088 1.80405 445.414
2890 1 -47.1324 1.79091 447.295 -47.1324 1.79091 447.295
3174 1 -48.8558 1.77781 449.176 -48.8558 1.77781 449.176
2618 1 -37.2329 3.30021 442.654 -37.2329 3.30021 442.654
2585 1 -55.5068 2.56972 441.031 -55.5068 2.56972 441.031
2583 1 -57.2306 2.55651 442.912 -57.2306 2.55651 442.912
2870 1 -58.9543 2.54332 444.793 -58.9543 2.54332 444.793
2867 1 -60.6779 2.53016 446.674 -60.6779 2.53016 446.674
2863 1 -62.4014 2.51703 448.555 -62.4014 2.51703 448.555
2599 1 -47.5518 2.56763 441.592 -47.5518 2.56763 441.592
2596 1 -49.2755 2.55447 443.473 -49.2755 2.55447 443.473
2883 1 -50.9992 2.54133 445.354 -50.9992 2.54133 445.354
2881 1 -52.7228 2.52825 447.235 -52.7228 2.52825 447.235
3164 1 -54.4463 2.51524 449.116 -54.4463 2.51524 449.116
2610 1 -41.3209 2.55214 444.034 -41.3209 2.55214 444.034
2896 1 -43.0446 2.53899 445.914 -43.0446 2.53899 445.914
2893 1 -44.7682 2.52584 447.795 -44.7682 2.52584 447.795
3178 1 -46.4916 2.51273 449.676 -46.4916 2.51273 449.676
2575 1 -61.9597 1.08622 441.912 -61.9597 1.08622 441.912
2591 1 -52.2805 1.09766 440.591 -52.2805 1.09766 440.591
2588 1 -54.0043 1.08447 442.472 -54.0043 1.08447 442.472
2876 1 -55.728 1.0713 444.353 -55.728 1.0713 444.353
2872 1 -57.4516 1.05818 446.234 -57.4516 1.05818 446.234
2869 1 -59.1752 1.0451 448.115 -59.1752 1.0451 448.115
2605 1 -44.3255 1.09542 441.152 -44.3255 1.09542 441.152
2602 1 -46.0494 1.08227 443.033 -46.0494 1.08227 443.033
2889 1 -47.7731 1.06911 444.914 -47.7731 1.06911 444.914
2886 1 -49.4967 1.05599 446.794 -49.4967 1.05599 446.794
3170 1 -51.2202 1.04292 448.675 -51.2202 1.04292 448.675
2899 1 -41.5423 1.05362 447.355 -41.5423 1.05362 447.355
3184 1 -43.2657 1.04048 449.236 -43.2657 1.04048 449.236
2580 1 -58.7332 4.04171 441.471 -58.7332 4.04171 441.471
2577 1 -60.457 4.02848 443.352 -60.457 4.02848 443.352
2864 1 -62.1807 4.01527 445.233 -62.1807 4.01527 445.233
2862 1 -63.0425 1.79495 446.174 -63.0425 1.79495 446.174
2594 1 -50.778 4.0398 442.032 -50.778 4.0398 442.032
2590 1 -52.5018 4.02664 443.913 -52.5018 4.02664 443.913
2878 1 -54.2254 4.01353 445.794 -54.2254 4.01353 445.794
2875 1 -55.949 4.00047 447.675 -55.949 4.00047 447.675
3159 1 -57.6725 3.98748 449.556 -57.6725 3.98748 449.556
2611 1 -41.0992 4.05064 440.712 -41.0992 4.05064 440.712
2608 1 -42.8232 4.03751 442.593 -42.8232 4.03751 442.593
2894 1 -44.547 4.02435 444.474 -44.547 4.02435 444.474
2891 1 -46.2706 4.0112 446.354 -46.2706 4.0112 446.354
2888 1 -47.9941 3.99808 448.235 -47.9941 3.99808 448.235
2904 1 -38.3165 4.00888 446.916 -38.3165 4.00888 446.916
2621 1 -35.5087 3.31329 440.773 -35.5087 3.31329 440.773
2617 1 -37.8729 2.57837 440.272 -37.8729 2.57837 440.272
2614 1 -39.597 2.56528 442.153 -39.597 2.56528 442.153
2908 1 -35.9525 0.316397 447.416 -35.9525 0.316397 447.416
2619 1 -36.3708 1.09303 441.713 -36.3708 1.09303 441.713
2906 1 -36.8143 2.52353 448.357 -36.8143 2.52353 448.357
2905 1 -37.4546 1.80174 445.975 -37.4546 1.80174 445.975
2620 1 -35.7308 1.81489 444.095 -35.7308 1.81489 444.095
3190 1 -40.04 3.99571 448.796 -40.04 3.99571 448.796
2902 1 -39.1782 1.78857 447.856 -39.1782 1.78857 447.856
2903 1 -38.9568 3.28709 444.534 -38.9568 3.28709 444.534
2615 1 -38.735 0.358105 441.213 -38.735 0.358105 441.213
2909 1 -35.0907 2.53672 446.476 -35.0907 2.53672 446.476
14 1 -54.3536 4.34952 399.862 -54.3536 4.34952 399.862
7 1 -59.0071 2.85141 398.956 -59.0071 2.85141 398.956
25 1 -46.3844 4.34231 400.337 -46.3844 4.34231 400.337
38 1 -38.4115 4.29614 400.851 -38.4115 4.29614 400.851
23 1 -48.1108 4.31272 402.21 -48.1108 4.31272 402.21
287 1 -51.5579 4.27919 405.941 -51.5579 4.27919 405.941
878 1 -42.544 4.22649 414.586 -42.544 4.22649 414.586
579 1 -48.7786 4.24369 412.143 -48.7786 4.24369 412.143
585 1 -45.3252 4.26856 408.386 -45.3252 4.26856 408.386
290 1 -49.836 4.29312 404.063 -49.836 4.29312 404.063
11 1 -56.0607 4.29625 401.652 -56.0607 4.29625 401.652
595 1 -39.0914 4.25104 410.827 -39.0914 4.25104 410.827
1134 1 -61.9109 4.20682 417.22 -61.9109 4.20682 417.22
283 1 -53.286 4.26963 407.819 -53.286 4.26963 407.819
582 1 -47.0517 4.25587 410.265 -47.0517 4.25587 410.265
276 1 -57.7983 4.30289 403.509 -57.7983 4.30289 403.509
569 1 -55.014 4.26009 409.696 -55.014 4.26009 409.696
847 1 -60.1865 4.22018 415.339 -60.1865 4.22018 415.339
556 1 -62.9691 4.26207 409.135 -62.9691 4.26207 409.135
272 1 -59.5289 4.29601 405.368 -59.5289 4.29601 405.368
3 1 -60.829 2.86173 400.641 -60.829 2.86173 400.641
35 1 -40.1417 4.30622 402.736 -40.1417 4.30622 402.736
598 1 -37.3651 4.2635 408.948 -37.3651 4.2635 408.948
850 1 -58.4624 4.23375 413.457 -58.4624 4.23375 413.457