ITEM: TIMESTEP
0
ITEM: NUMBER OF ATOMS
4630
ITEM: BOX BOUNDS xy xz yz pp pp pp
-5.7640988501799995e+01 1.0066002035000000e+02 0.0000000000000000e+00
0.0000000000000000e+00 4.4274527100805940e+00 0.0000000000000000e+00
3.8000000000000000e+02 5.0000000000000000e+02 0.0000000000000000e+00
ITEM: ATOMS id type x y z xu yu zu
27 1 -42.4976 2.67732 398.245 -42.4976 2.67732 398.245
36 1 -37.0873 1.92637 398.089 -37.0873 1.92637 398.089
31 1 -40.1204 3.34396 398.589 -40.1204 3.34396 398.589
22 1 -45.5566 4.10242 398.784 -45.5566 4.10242 398.784
20 1 -46.3139 1.88863 399.696 -46.3139 1.88863 399.696
40 1 -34.7129 2.59608 398.44 -34.7129 2.59608 398.44
34 1 -37.8284 4.12847 398.99 -37.8284 4.12847 398.99
17 1 -48.6118 1.12404 399.307 -48.6118 1.12404 399.307
9 1 -53.9665 1.80154 399.437 -53.9665 1.80154 399.437
43 1 -32.4232 3.38183 398.844 -32.4232 3.38183 398.844
12 1 -51.7129 2.65612 399.868 -51.7129 2.65612 399.868
5 1 -56.3373 1.18651 399.089 -56.3373 1.18651 399.089
29 1 -40.9111 1.12023 399.497 -40.9111 1.12023 399.497
853 1 -52.6964 3.07573 414.462 -52.6964 3.07573 414.462
873 1 -41.9302 1.59409 414.138 -41.9302 1.59409 414.138
865 1 -45.8026 0.828147 415.712 -45.8026 0.828147 415.712
1174 1 -33.5189 2.26561 416.812 -33.5189 2.26561 416.812
883 1 -36.5437 0.851839 413.982 -36.5437 0.851839 413.982
863 1 -47.3147 2.33579 414.299 -47.3147 2.33579 414.299
315 1 -32.4846 1.81096 402.212 -32.4846 1.81096 402.212
307 1 -37.1558 3.25204 404.766 -37.1558 3.25204 404.766
1150 1 -47.3761 0.787444 417.703 -47.3761 0.787444 417.703
855 1 -51.1851 1.56831 415.875 -51.1851 1.56831 415.875
310 1 -35.5818 3.28716 402.783 -35.5818 3.28716 402.783
871 1 -42.7169 3.78808 415.133 -42.7169 3.78808 415.133
16 1 -49.3872 3.32912 400.222 -49.3872 3.32912 400.222
309 1 -35.6379 1.74461 406.18 -35.6379 1.74461 406.18
1156 1 -44.2909 3.74808 417.124 -44.2909 3.74808 417.124
867 1 -45.016 3.06195 414.716 -45.016 3.06195 414.716
1159 1 -41.9923 0.0471807 417.542 -41.9923 4.47463 417.542
1168 1 -36.6066 3.73379 417.385 -36.6066 3.73379 417.385
1170 1 -35.8188 1.53945 416.391 -35.8188 1.53945 416.391
594 1 -36.4247 3.9406 407.174 -36.4247 3.9406 407.174
37 1 -36.3053 2.58602 400.383 -36.3053 2.58602 400.383
851 1 -53.4823 0.841497 415.459 -53.4823 0.841497 415.459
857 1 -50.399 3.80258 414.879 -50.399 3.80258 414.879
592 1 -37.2113 1.70862 408.168 -37.2113 1.70862 408.168
849 1 -54.2684 3.03451 416.455 -54.2684 3.03451 416.455
877 1 -39.6307 2.32019 414.556 -39.6307 2.32019 414.556
1143 1 -51.9714 3.76133 416.871 -51.9714 3.76133 416.871
1140 1 -53.5443 3.71932 418.864 -53.5443 3.71932 418.864
845 1 -56.565 2.30815 416.039 -56.565 2.30815 416.039
875 1 -40.4178 0.0868695 415.551 -40.4178 4.51432 415.551
886 1 -34.9691 0.889728 411.993 -34.9691 0.889728 411.993
891 1 -31.8801 3.84721 411.422 -31.8801 3.84721 411.422
39 1 -34.7994 1.0888 401.788 -34.7994 1.0888 401.788
1177 1 -32.0071 0.758946 418.228 -32.0071 0.758946 418.228
1167 1 -37.3945 1.50049 418.38 -37.3945 1.50049 418.38
8 1 -54.7809 4.07223 400.461 -54.7809 4.07223 400.461
869 1 -43.5039 1.55444 416.129 -43.5039 1.55444 416.129
1136 1 -55.8408 2.99233 418.448 -55.8408 2.99233 418.448
1162 1 -40.4811 2.96762 418.955 -40.4811 2.96762 418.955
15 1 -50.1823 1.11169 401.261 -50.1823 1.11169 401.261
280 1 -51.7467 1.0816 403.251 -51.7467 1.0816 403.251
277 1 -53.3153 1.05584 405.24 -53.3153 1.05584 405.24
273 1 -54.8791 1.01743 407.235 -54.8791 1.01743 407.235
560 1 -56.4477 0.979509 409.229 -56.4477 0.979509 409.229
557 1 100.284 0.940417 411.222 -58.0175 0.940417 411.222
26 1 -42.4917 1.10753 401.501 -42.4917 1.10753 401.501
294 1 -44.0648 1.07815 403.506 -44.0648 1.07815 403.506
291 1 -45.6342 1.04119 405.499 -45.6342 1.04119 405.499
576 1 -47.202 1.0019 407.491 -47.202 1.0019 407.491
573 1 -48.7705 0.962709 409.482 -48.7705 0.962709 409.482
570 1 -50.3399 0.92274 411.474 -50.3399 0.92274 411.474
854 1 -51.9106 0.882332 413.466 -51.9106 0.882332 413.466
305 1 -37.9416 1.02048 405.759 -37.9416 1.02048 405.759
589 1 -39.5133 0.983548 407.748 -39.5133 0.983548 407.748
586 1 -41.0849 0.94581 409.738 -41.0849 0.94581 409.738
872 1 -42.6569 0.907325 411.729 -42.6569 0.907325 411.729
599 1 -33.3943 0.926674 410.006 -33.3943 0.926674 410.006
4 1 -56.3578 4.08322 402.399 -56.3578 4.08322 402.399
268 1 100.395 4.03731 404.417 -57.9059 4.03731 404.417
1152 1 -46.5893 3.02161 416.708 -46.5893 3.02161 416.708
19 1 -47.1099 4.07498 400.702 -47.1099 4.07498 400.702
286 1 -48.6711 4.03858 402.66 -48.6711 4.03858 402.66
282 1 -50.2309 4.00458 404.657 -50.2309 4.00458 404.657
279 1 -51.7981 3.97275 406.65 -51.7981 3.97275 406.65
565 1 -53.3649 3.93556 408.646 -53.3649 3.93556 408.646
563 1 -54.9343 3.89728 410.64 -54.9343 3.89728 410.64
846 1 -56.505 3.85806 412.633 -56.505 3.85806 412.633
32 1 -39.4079 4.07108 400.956 -39.4079 4.07108 400.956
300 1 -40.9793 4.03543 402.935 -40.9793 4.03543 402.935
297 1 -42.5479 3.99841 404.923 -42.5479 3.99841 404.923
293 1 -44.117 3.96121 406.913 -44.117 3.96121 406.913
578 1 -45.6863 3.92269 408.904 -45.6863 3.92269 408.904
575 1 -47.2564 3.88341 410.895 -47.2564 3.88341 410.895
860 1 -48.8273 3.8433 412.887 -48.8273 3.8433 412.887
591 1 -37.9978 3.90378 409.162 -37.9978 3.90378 409.162
588 1 -39.5705 3.86596 411.152 -39.5705 3.86596 411.152
874 1 -41.1435 3.82737 413.142 -41.1435 3.82737 413.142
10 1 -53.2709 2.58362 401.845 -53.2709 2.58362 401.845
274 1 -54.8377 2.57073 403.824 -54.8377 2.57073 403.824
271 1 -56.394 2.52781 405.825 -56.394 2.52781 405.825
558 1 100.339 2.48993 407.818 -57.9617 2.48993 407.818
24 1 -44.0352 2.63084 400.154 -44.0352 2.63084 400.154
21 1 -45.596 2.58697 402.106 -45.596 2.58697 402.106
288 1 -47.1549 2.54771 404.089 -47.1549 2.54771 404.089
285 1 -48.718 2.5064 406.078 -48.718 2.5064 406.078
571 1 -50.2847 2.46827 408.068 -50.2847 2.46827 408.068
568 1 -51.8525 2.42906 410.06 -51.8525 2.42906 410.06
852 1 -53.4223 2.38946 412.053 -53.4223 2.38946 412.053
848 1 -54.9934 2.34938 414.046 -54.9934 2.34938 414.046
306 1 -37.8859 2.55911 402.357 -37.8859 2.55911 402.357
302 1 -39.4591 2.52642 404.342 -39.4591 2.52642 404.342
299 1 -41.0296 2.4903 406.333 -41.0296 2.4903 406.333
583 1 -42.6002 2.45317 408.324 -42.6002 2.45317 408.324
581 1 -44.1711 2.41491 410.316 -44.1711 2.41491 410.316
866 1 -45.7426 2.37578 412.308 -45.7426 2.37578 412.308
880 1 -38.0568 2.35886 412.567 -38.0568 2.35886 412.567
312 1 -34.063 1.77907 404.193 -34.063 1.77907 404.193
2 1 100.402 1.20262 401.032 -57.8988 1.20262 401.032
13 1 -50.957 3.30611 402.235 -50.957 3.30611 402.235
278 1 -52.5307 3.28341 404.237 -52.5307 3.28341 404.237
275 1 -54.096 3.25056 406.235 -54.096 3.25056 406.235
562 1 -55.6627 3.21208 408.232 -55.6627 3.21208 408.232
559 1 -57.2325 3.17393 410.225 -57.2325 3.17393 410.225
1166 1 -38.1824 3.69448 419.374 -38.1824 3.69448 419.374
889 1 -32.6679 1.61512 412.416 -32.6679 1.61512 412.416
28 1 -41.709 3.33681 400.535 -41.709 3.33681 400.535
296 1 -43.2822 3.3079 402.515 -43.2822 3.3079 402.515
292 1 -44.8508 3.2738 404.505 -44.8508 3.2738 404.505
289 1 -46.418 3.23547 406.496 -46.418 3.23547 406.496
574 1 -47.9861 3.19617 408.487 -47.9861 3.19617 408.487
572 1 -49.5551 3.15659 410.478 -49.5551 3.15659 410.478
856 1 -51.1251 3.11631 412.47 -51.1251 3.11631 412.47
303 1 -38.7278 3.21576 406.753 -38.7278 3.21576 406.753
587 1 -40.2992 3.17845 408.743 -40.2992 3.17845 408.743
584 1 -41.8709 3.14037 410.733 -41.8709 3.14037 410.733
870 1 -43.4431 3.10153 412.725 -43.4431 3.10153 412.725
6 1 -55.5773 1.8808 401.395 -55.5773 1.8808 401.395
270 1 -57.1256 1.84289 403.412 -57.1256 1.84289 403.412
890 1 -31.9427 2.30339 414.825 -31.9427 2.30339 414.825
18 1 -47.8863 1.84364 401.674 -47.8863 1.84364 401.674
284 1 -49.4478 1.80875 403.664 -49.4478 1.80875 403.664
281 1 -51.0146 1.77606 405.656 -51.0146 1.77606 405.656
567 1 -52.5814 1.74102 407.649 -52.5814 1.74102 407.649
564 1 -54.1494 1.70276 409.643 -54.1494 1.70276 409.643
561 1 -55.7196 1.66416 411.637 -55.7196 1.66416 411.637
844 1 -57.2904 1.62409 413.63 -57.2904 1.62409 413.63
33 1 -38.633 1.87689 399.993 -38.633 1.87689 399.993
30 1 -40.2011 1.83712 401.936 -40.2011 1.83712 401.936
298 1 -41.7641 1.80239 403.925 -41.7641 1.80239 403.925
295 1 -43.3324 1.76617 405.916 -43.3324 1.76617 405.916
580 1 -44.9015 1.72829 407.908 -44.9015 1.72829 407.908
577 1 -46.4713 1.68938 409.899 -46.4713 1.68938 409.899
862 1 -48.0417 1.64971 411.891 -48.0417 1.64971 411.891
590 1 -38.7841 1.67126 410.157 -38.7841 1.67126 410.157
876 1 -40.3569 1.63304 412.147 -40.3569 1.63304 412.147
1163 1 -39.6935 0.773827 417.96 -39.6935 0.773827 417.96
1153 1 -45.8652 3.70737 419.116 -45.8652 3.70737 419.116
311 1 -34.8499 3.97599 405.187 -34.8499 3.97599 405.187
42 1 -33.2262 1.13024 399.848 -33.2262 1.13024 399.848
1135 1 -56.6272 0.757125 419.445 -56.6272 0.757125 419.445
1171 1 -35.0952 2.2271 418.8 -35.0952 2.2271 418.8
1139 1 -54.3309 1.48427 419.86 -54.3309 1.48427 419.86
601 1 -32.6067 3.15845 409.013 -32.6067 3.15845 409.013
313 1 -33.2717 4.01027 403.198 -33.2717 4.01027 403.198
858 1 -49.613 1.60927 413.883 -49.613 1.60927 413.883
868 1 -44.2295 0.868115 413.72 -44.2295 0.868115 413.72
1147 1 -49.674 0.0607344 417.287 -49.674 4.48819 417.287
843 1 100.225 3.81712 414.627 -58.0759 3.81712 414.627
593 1 -36.4832 2.39676 410.578 -36.4832 2.39676 410.578
308 1 -36.369 1.05534 403.771 -36.369 1.05534 403.771
861 1 -48.101 0.101787 415.295 -48.101 4.52924 415.295
1158 1 -42.7797 2.24081 418.537 -42.7797 2.24081 418.537
884 1 -35.7564 3.08461 412.987 -35.7564 3.08461 412.987
881 1 -37.331 3.04633 414.976 -37.331 3.04633 414.976
885 1 -35.031 3.77239 415.397 -35.031 3.77239 415.397
859 1 -48.8874 2.29507 416.291 -48.8874 2.29507 416.291
596 1 -34.9094 2.43369 408.59 -34.9094 2.43369 408.59
879 1 -38.1184 0.813178 415.971 -38.1184 0.813178 415.971
1172 1 -34.307 0.0327148 417.806 -34.307 4.46017 417.806
1154 1 -45.078 1.51409 418.12 -45.078 1.51409 418.12
887 1 -34.2433 1.57769 414.403 -34.2433 1.57769 414.403
597 1 -34.1818 3.12206 410.999 -34.1818 3.12206 410.999
1161 1 -41.205 2.28084 416.547 -41.205 2.28084 416.547
1138 1 -55.0546 0.799819 417.451 -55.0546 0.799819 417.451
1149 1 -48.1631 2.98055 418.699 -48.1631 2.98055 418.699
41 1 -34.005 3.32263 400.809 -34.005 3.32263 400.809
888 1 -33.4556 3.81024 413.409 -33.4556 3.81024 413.409
1165 1 -38.9059 3.00731 416.965 -38.9059 3.00731 416.965
1141 1 -52.7578 1.5267 417.867 -52.7578 1.5267 417.867
1145 1 -50.4607 2.25367 418.283 -50.4607 2.25367 418.283
600 1 -33.3348 2.46944 406.604 -33.3348 2.46944 406.604
1148 1 -48.9501 0.746017 419.695 -48.9501 0.746017 419.695
882 1 -37.27 0.164185 411.572 -37.27 4.59164 411.572
1157 1 -43.5671 0.00680613 419.533 -43.5671 4.43426 419.533
1144 1 -51.2474 0.018972 419.28 -51.2474 4.44642 419.28
602 1 -31.8189 0.962471 408.02 -31.8189 0.962471 408.02
1755 1 -31.4223 2.78487 427.441 -31.4223 2.78487 427.441
1460 1 -35.9501 2.8754 423.197 -35.9501 2.8754 423.197
2308 1 -44.6881 3.30822 437.55 -44.6881 3.30822 437.55
2316 1 -40.0309 1.89081 434.978 -40.0309 1.89081 434.978
2312 1 -42.3934 4.03865 437.966 -42.3934 4.03865 437.966
1464 1 -33.6515 3.60269 423.618 -33.6515 3.60269 423.618
1461 1 -35.1615 0.681476 422.203 -35.1615 0.681476 422.203
2039 1 -33.862 3.3926 433.824 -33.862 3.3926 433.824
2613 1 -35.5099 1.80289 439.217 -35.5099 1.80289 439.217
1467 1 -31.3526 4.32978 424.039 -31.3526 4.32978 424.039
2603 1 -40.8859 2.53332 439.379 -40.8859 2.53332 439.379
1443 1 -45.1423 4.39317 421.524 -45.1423 4.39317 421.524
1748 1 -35.2295 3.56306 425.606 -35.2295 3.56306 425.606
2023 1 -42.3262 1.16082 434.561 -42.3262 1.16082 434.561
2310 1 -43.1802 1.80265 438.963 -43.1802 1.80265 438.963
1151 1 -46.6525 1.47302 420.112 -46.6525 1.47302 420.112
2303 1 -47.7696 0.341874 438.131 -47.7696 0.341874 438.131
2299 1 -50.0647 4.03941 437.715 -50.0647 4.03941 437.715
2033 1 -36.947 0.428425 434.4 -36.947 0.428425 434.4
1433 1 -50.5243 0.703819 421.688 -50.5243 0.703819 421.688
1430 1 -52.0986 0.660846 423.681 -52.0986 0.660846 423.681
1426 1 -53.673 0.617179 425.674 -53.673 0.617179 425.674
1713 1 -55.2475 0.572971 427.667 -55.2475 0.572971 427.667
1710 1 -56.822 0.528422 429.661 -56.822 0.528422 429.661
2330 1 -31.6378 2.57566 437.646 -31.6378 2.57566 437.646
1160 1 -41.2689 0.733797 419.95 -41.2689 0.733797 419.95
1447 1 -42.8445 0.693067 421.941 -42.8445 0.693067 421.941
1444 1 -44.4202 0.651601 423.932 -44.4202 0.651601 423.932
1730 1 -45.9959 0.60937 425.924 -45.9959 0.60937 425.924
1727 1 -47.5714 0.566389 427.916 -47.5714 0.566389 427.916
1724 1 -49.1465 0.522735 429.909 -49.1465 0.522735 429.909
2008 1 -50.7213 0.478545 431.902 -50.7213 0.478545 431.902
2006 1 -52.2956 0.434004 433.895 -52.2956 0.434004 433.895
1458 1 -36.7388 0.641691 424.192 -36.7388 0.641691 424.192
1743 1 -38.3162 0.601153 426.181 -38.3162 0.601153 426.181
1740 1 -39.8934 0.559812 428.17 -39.8934 0.559812 428.17
2026 1 -41.4701 0.51764 430.161 -41.4701 0.51764 430.161
2022 1 -43.0463 0.474653 432.152 -43.0463 0.474653 432.152
2019 1 -44.6216 0.430928 434.145 -44.6216 0.430928 434.145
2309 1 -43.9011 1.11675 436.553 -43.9011 1.11675 436.553
1137 1 -55.1176 3.67646 420.857 -55.1176 3.67646 420.857
1421 1 -56.6911 3.6328 422.85 -56.6911 3.6328 422.85
1439 1 -47.4398 3.66593 421.108 -47.4398 3.66593 421.108
1435 1 -49.0146 3.62372 423.1 -49.0146 3.62372 423.1
1432 1 -50.5894 3.58075 425.092 -50.5894 3.58075 425.092
1719 1 -52.1641 3.5371 427.085 -52.1641 3.5371 427.085
1716 1 -53.7387 3.49292 429.079 -53.7387 3.49292 429.079
2001 1 -55.3132 3.4484 431.072 -55.3132 3.4484 431.072
1998 1 -56.8876 3.40375 433.066 -56.8876 3.40375 433.066
2323 1 -35.44 3.35074 435.813 -35.44 3.35074 435.813
1453 1 -39.7585 3.6545 421.364 -39.7585 3.6545 421.364
1450 1 -41.3347 3.61379 423.354 -41.3347 3.61379 423.354
1446 1 -42.911 3.57234 425.345 -42.911 3.57234 425.345
1732 1 -44.487 3.53011 427.336 -44.487 3.53011 427.336
1729 1 -46.0627 3.48712 429.328 -46.0627 3.48712 429.328
2014 1 -47.638 3.44344 431.32 -47.638 3.44344 431.32
2011 1 -49.2127 3.39922 433.313 -49.2127 3.39922 433.313
1745 1 -36.8074 3.52265 427.594 -36.8074 3.52265 427.594
1742 1 -38.385 3.48141 429.584 -38.385 3.48141 429.584
2028 1 -39.9621 3.4393 431.574 -39.9621 3.4393 431.574
2025 1 -41.5384 3.39633 433.565 -41.5384 3.39633 433.565
1427 1 -53.608 2.16857 422.269 -53.608 2.16857 422.269
1424 1 -55.182 2.1249 424.262 -55.182 2.1249 424.262
1711 1 -56.7563 2.08065 426.256 -56.7563 2.08065 426.256
2322 1 -36.2285 1.11569 436.808 -36.2285 1.11569 436.808
1750 1 -33.7206 2.05715 427.02 -33.7206 2.05715 427.02
1155 1 -44.3547 2.20008 420.528 -44.3547 2.20008 420.528
1441 1 -45.9299 2.15862 422.52 -45.9299 2.15862 422.52
1438 1 -47.5051 2.1164 424.512 -47.5051 2.1164 424.512
1725 1 -49.0803 2.07343 426.504 -49.0803 2.07343 426.504
1722 1 -50.6552 2.02978 428.497 -50.6552 2.02978 428.497
1718 1 -52.23 1.98561 430.49 -52.23 1.98561 430.49
2003 1 -53.8044 1.94109 432.484 -53.8044 1.94109 432.484
2000 1 -55.3786 1.89645 434.477 -55.3786 1.89645 434.477
1459 1 -36.6718 2.18789 420.789 -36.6718 2.18789 420.789
1455 1 -38.2485 2.14798 422.778 -38.2485 2.14798 422.778
1452 1 -39.8253 2.10734 424.767 -39.8253 2.10734 424.767
1737 1 -41.402 2.06593 426.757 -41.402 2.06593 426.757
1735 1 -42.9784 2.02372 428.748 -42.9784 2.02372 428.748
2020 1 -44.5544 1.98073 430.74 -44.5544 1.98073 430.74
2017 1 -46.1297 1.93702 432.732 -46.1297 1.93702 432.732
2034 1 -36.8771 1.97579 430.997 -36.8771 1.97579 430.997
2031 1 -38.4544 1.93375 432.987 -38.4544 1.93375 432.987
2029 1 -39.2428 4.12612 433.982 -39.2428 4.12612 433.982
1146 1 -49.7372 2.93874 420.692 -49.7372 2.93874 420.692
1431 1 -51.3115 2.89615 422.684 -51.3115 2.89615 422.684
1428 1 -52.8858 2.85282 424.677 -52.8858 2.85282 424.677
1715 1 -54.4602 2.80886 426.671 -54.4602 2.80886 426.671
1712 1 -56.0347 2.76445 428.664 -56.0347 2.76445 428.664
1708 1 100.692 2.71982 430.658 -57.6093 2.71982 430.658
1747 1 -35.299 2.01691 429.008 -35.299 2.01691 429.008
1449 1 -42.0567 2.92725 420.946 -42.0567 2.92725 420.946
1445 1 -43.6324 2.88615 422.936 -43.6324 2.88615 422.936
1442 1 -45.2081 2.84431 424.928 -45.2081 2.84431 424.928
1728 1 -46.7837 2.8017 426.92 -46.7837 2.8017 426.92
1726 1 -48.359 2.75837 428.912 -48.359 2.75837 428.912
2010 1 -49.934 2.71442 430.905 -49.934 2.71442 430.905
2007 1 -51.5085 2.67003 432.898 -51.5085 2.67003 432.898
1456 1 -37.5275 2.83525 425.186 -37.5275 2.83525 425.186
1741 1 -39.1048 2.79431 427.175 -39.1048 2.79431 427.175
1738 1 -40.6818 2.75256 429.166 -40.6818 2.75256 429.166
2024 1 -42.2583 2.70997 431.157 -42.2583 2.70997 431.157
2021 1 -43.8341 2.6666 433.148 -43.8341 2.6666 433.148
2035 1 -36.1583 2.66325 433.405 -36.1583 2.66325 433.405
1754 1 -32.1419 2.0966 425.033 -32.1419 2.0966 425.033
1423 1 -55.9043 1.441 421.854 -55.9043 1.441 421.854
1420 1 -57.478 1.397 423.847 -57.478 1.397 423.847
2044 1 -30.7757 1.92822 433.25 -30.7757 1.92822 433.25
1437 1 -48.2272 1.4312 422.104 -48.2272 1.4312 422.104
1434 1 -49.802 1.3886 424.096 -49.802 1.3886 424.096
1721 1 -51.3767 1.34527 426.089 -51.3767 1.34527 426.089
1717 1 -52.9514 1.30133 428.082 -52.9514 1.30133 428.082
1714 1 -54.526 1.25696 430.075 -54.526 1.25696 430.075
1999 1 -56.1004 1.21235 432.069 -56.1004 1.21235 432.069
1997 1 -57.6747 1.16773 434.063 -57.6747 1.16773 434.063
1164 1 -38.9704 1.46085 420.369 -38.9704 1.46085 420.369
1451 1 -40.5466 1.42051 422.359 -40.5466 1.42051 422.359
1448 1 -42.1229 1.37944 424.349 -42.1229 1.37944 424.349
1734 1 -43.699 1.3376 426.34 -43.699 1.3376 426.34
1731 1 -45.2749 1.29498 428.332 -45.2749 1.29498 428.332
2016 1 -46.8504 1.25163 430.324 -46.8504 1.25163 430.324
2012 1 -48.4254 1.20766 432.317 -48.4254 1.20766 432.317
2009 1 -49.9999 1.16323 434.31 -49.9999 1.16323 434.31
1746 1 -36.0185 1.32923 426.6 -36.0185 1.32923 426.6
1744 1 -37.5963 1.28841 428.589 -37.5963 1.28841 428.589
2030 1 -39.1737 1.24673 430.579 -39.1737 1.24673 430.579
2027 1 -40.7504 1.20419 432.569 -40.7504 1.20419 432.569
2325 1 -34.6511 1.15807 434.819 -34.6511 1.15807 434.819
1749 1 -34.5098 4.25086 428.014 -34.5098 4.25086 428.014
1425 1 -54.395 4.36054 423.266 -54.395 4.36054 423.266
1736 1 -42.1903 4.25865 427.753 -42.1903 4.25865 427.753
1142 1 -52.0342 2.21152 420.276 -52.0342 2.21152 420.276
1720 1 -51.4426 4.22148 429.493 -51.4426 4.22148 429.493
2005 1 -53.0172 4.17711 431.487 -53.0172 4.17711 431.487
2002 1 -54.5915 4.1325 433.48 -54.5915 4.1325 433.48
1169 1 -35.8835 4.4213 419.794 -35.8835 4.4213 419.794
1723 1 -49.8678 4.26541 427.5 -49.8678 4.26541 427.5
1440 1 -46.7175 4.35133 423.516 -46.7175 4.35133 423.516
1733 1 -43.7665 4.21604 429.744 -43.7665 4.21604 429.744
2018 1 -45.3421 4.17268 431.736 -45.3421 4.17268 431.736
2015 1 -46.9171 4.12867 433.729 -46.9171 4.12867 433.729
2036 1 -36.0881 4.21019 430.002 -36.0881 4.21019 430.002
2032 1 -37.6658 4.16861 431.992 -37.6658 4.16861 431.992
2326 1 -33.9332 1.84576 437.227 -33.9332 1.84576 437.227
1752 1 -32.9312 4.2907 426.026 -32.9312 4.2907 426.026
1457 1 -37.4601 4.38175 421.783 -37.4601 4.38175 421.783
2043 1 -31.4934 1.23976 430.842 -31.4934 1.23976 430.842
2286 1 -56.9524 1.85188 436.471 -56.9524 1.85188 436.471
2319 1 -37.8044 1.07233 438.8 -37.8044 1.07233 438.8
1436 1 -48.2927 4.30873 425.508 -48.2927 4.30873 425.508
1422 1 -55.9691 4.31656 425.259 -55.9691 4.31656 425.259
1173 1 -33.5842 0.720554 420.215 -33.5842 0.720554 420.215
2293 1 -53.1467 1.07379 438.297 -53.1467 1.07379 438.297
2289 1 -55.4427 0.344719 437.882 -55.4427 0.344719 437.882
2295 1 -51.6373 3.99458 439.709 -51.6373 3.99458 439.709
1465 1 -32.8625 1.40851 422.624 -32.8625 1.40851 422.624
2315 1 -40.0988 0.341748 438.383 -40.0988 0.341748 438.383
2331 1 -31.5655 4.12174 434.244 -31.5655 4.12174 434.244
2297 1 -50.8511 1.80326 438.712 -50.8511 1.80326 438.712
2324 1 -34.7218 4.03819 438.222 -34.7218 4.03819 438.222
2306 1 -45.4747 1.07214 438.547 -45.4747 1.07214 438.547
2285 1 -57.0155 0.300406 439.876 -57.0155 0.300406 439.876
1462 1 -34.4405 1.36924 424.612 -34.4405 1.36924 424.612
1751 1 -33.0015 2.74523 429.428 -33.0015 2.74523 429.428
2329 1 -32.355 1.88754 435.238 -32.355 1.88754 435.238
2042 1 -32.2831 3.43343 431.836 -32.2831 3.43343 431.836
2041 1 -33.0727 1.19942 432.83 -33.0727 1.19942 432.83
2593 1 -46.2611 3.26343 439.543 -46.2611 3.26343 439.543
2328 1 -32.4268 0.340934 438.64 -32.4268 0.340934 438.64
2301 1 -48.5559 2.53315 439.128 -48.5559 2.53315 439.128
1466 1 -32.0736 3.64161 421.631 -32.0736 3.64161 421.631
2298 1 -50.7868 3.35462 435.307 -50.7868 3.35462 435.307
2321 1 -37.0166 3.30785 437.804 -37.0166 3.30785 437.804
2313 1 -41.6062 1.84706 436.97 -41.6062 1.84706 436.97
2294 1 -52.3603 3.30988 437.3 -52.3603 3.30988 437.3
2304 1 -46.9829 2.578 437.134 -46.9829 2.578 437.134
2300 1 -49.2781 1.84809 436.719 -49.2781 1.84809 436.719
2290 1 -54.6561 2.58072 436.886 -54.6561 2.58072 436.886
2318 1 -38.5236 0.385518 436.391 -38.5236 0.385518 436.391
2327 1 -33.1443 4.08052 436.232 -33.1443 4.08052 436.232
2004 1 -53.0826 2.62539 434.892 -53.0826 2.62539 434.892
2013 1 -47.7043 1.89275 434.725 -47.7043 1.89275 434.725
2288 1 -56.1655 4.08787 435.474 -56.1655 4.08787 435.474
2037 1 -35.3694 0.470375 432.41 -35.3694 0.470375 432.41
1739 1 -40.6137 4.30046 425.762 -40.6137 4.30046 425.762
1753 1 -32.2119 0.551423 428.434 -32.2119 0.551423 428.434
2307 1 -45.409 2.62256 435.141 -45.409 2.62256 435.141
2314 1 -40.8187 4.08276 435.974 -40.8187 4.08276 435.974
2040 1 -33.7909 0.511357 430.422 -33.7909 0.511357 430.422
2320 1 -37.7355 2.62081 435.395 -37.7355 2.62081 435.395
2292 1 -53.8694 0.389322 435.889 -53.8694 0.389322 435.889
2311 1 -43.1138 3.35259 435.557 -43.1138 3.35259 435.557
2302 1 -48.4913 4.08418 435.722 -48.4913 4.08418 435.722
2296 1 -51.5736 1.11853 436.304 -51.5736 1.11853 436.304
1463 1 -34.3728 2.91483 421.209 -34.3728 2.91483 421.209
2287 1 -56.2292 2.53624 438.879 -56.2292 2.53624 438.879
2291 1 -53.933 3.26521 439.294 -53.933 3.26521 439.294
2317 1 -39.3114 2.57746 437.387 -39.3114 2.57746 437.387
2038 1 -34.5802 2.70471 431.416 -34.5802 2.70471 431.416
2305 1 -46.1961 0.386605 436.137 -46.1961 0.386605 436.137
2332 1 -30.8484 0.382634 436.652 -30.8484 0.382634 436.652
1709 1 -57.5435 4.27211 427.253 -57.5435 4.27211 427.253
1468 1 -31.2847 1.44708 420.637 -31.2847 1.44708 420.637
1454 1 -39.0369 4.34148 423.772 -39.0369 4.34148 423.772
1429 1 -52.8211 4.40387 421.272 -52.8211 4.40387 421.272
1133 1 -57.4136 2.94914 420.442 -57.4136 2.94914 420.442
1175 1 -32.7956 2.95356 419.222 -32.7956 2.95356 419.222
2616 1 -33.285 0.98513 443.04 -33.285 0.98513 443.04
2901 1 -34.8582 0.940615 445.032 -34.8582 0.940615 445.032
2907 1 -31.7791 3.90784 444.453 -31.7791 3.90784 444.453
3194 1 -32.6304 0.12172 448.857 -32.6304 0.12172 448.857
2587 1 -49.342 0.296961 440.125 -49.342 0.296961 440.125
2597 1 -43.9667 3.99399 439.959 -43.9667 3.99399 439.959
2584 1 -50.9134 0.252111 442.119 -50.9134 0.252111 442.119
2581 1 -52.4838 0.207568 444.113 -52.4838 0.207568 444.113
2868 1 -54.0534 0.163572 446.107 -54.0534 0.163572 446.107
2865 1 -55.6222 0.120339 448.1 -55.6222 0.120339 448.1
2601 1 -41.6726 0.297291 440.376 -41.6726 0.297291 440.376
2598 1 -43.2447 0.252387 442.369 -43.2447 0.252387 442.369
2885 1 -44.8152 0.207317 444.364 -44.8152 0.207317 444.364
2882 1 -46.3841 0.162376 446.359 -46.3841 0.162376 446.359
2879 1 -47.9516 0.117854 448.354 -47.9516 0.117854 448.354
2612 1 -35.5782 0.254107 442.622 -35.5782 0.254107 442.622
2898 1 -37.1507 0.209366 444.615 -37.1507 0.209366 444.615
2895 1 -38.7208 0.164163 446.61 -38.7208 0.164163 446.61
3180 1 -40.2887 0.118874 448.605 -40.2887 0.118874 448.605
2576 1 -55.5051 3.22083 441.288 -55.5051 3.22083 441.288
2574 1 -57.0766 3.17696 443.282 -57.0766 3.17696 443.282
2589 1 -47.833 3.21844 441.537 -47.833 3.21844 441.537
2586 1 -49.4036 3.17352 443.532 -49.4036 3.17352 443.532
2874 1 -50.9731 3.12893 445.526 -50.9731 3.12893 445.526
2871 1 -52.5415 3.08489 447.52 -52.5415 3.08489 447.52
3155 1 -54.1092 3.04165 449.514 -54.1092 3.04165 449.514
2607 1 -38.5917 3.26405 439.796 -38.5917 3.26405 439.796
2604 1 -40.1651 3.21953 441.789 -40.1651 3.21953 441.789
2600 1 -41.7366 3.17455 443.783 -41.7366 3.17455 443.783
2887 1 -43.3064 3.12943 445.777 -43.3064 3.12943 445.777
2884 1 -44.8743 3.0845 447.773 -44.8743 3.0845 447.773
3168 1 -46.4407 3.04008 449.768 -46.4407 3.04008 449.768
2900 1 -35.6438 3.13181 446.029 -35.6438 3.13181 446.029
2897 1 -37.213 3.08648 448.024 -37.213 3.08648 448.024
2582 1 -52.4232 1.7585 440.706 -52.4232 1.7585 440.706
2579 1 -53.9945 1.71404 442.7 -53.9945 1.71404 442.7
2866 1 -55.5651 1.67011 444.694 -55.5651 1.67011 444.694
2578 1 -54.7191 1.02924 440.291 -54.7191 1.02924 440.291
2595 1 -44.7528 1.7578 440.956 -44.7528 1.7578 440.956
2592 1 -46.324 1.71277 442.95 -46.324 1.71277 442.95
2880 1 -47.8938 1.66782 444.945 -47.8938 1.66782 444.945
2877 1 -49.4623 1.62323 446.939 -49.4623 1.62323 446.939
2873 1 -51.0297 1.57924 448.934 -51.0297 1.57924 448.934
2609 1 -37.0849 1.75903 441.209 -37.0849 1.75903 441.209
2606 1 -38.6578 1.71441 443.202 -38.6578 1.71441 443.202
2892 1 -40.2287 1.66933 445.196 -40.2287 1.66933 445.196
2890 1 -41.7975 1.62414 447.191 -41.7975 1.62414 447.191
3174 1 -43.3644 1.57918 449.187 -43.3644 1.57918 449.187
2618 1 -32.4975 3.22076 442.044 -32.4975 3.22076 442.044
2585 1 -50.1278 2.48824 441.122 -50.1278 2.48824 441.122
2583 1 -51.6987 2.44351 443.116 -51.6987 2.44351 443.116
2870 1 -53.2687 2.39921 445.11 -53.2687 2.39921 445.11
2867 1 -54.8379 2.35557 447.104 -54.8379 2.35557 447.104
2863 1 -56.4064 2.3128 449.097 -56.4064 2.3128 449.097
2599 1 -42.4588 2.4886 441.372 -42.4588 2.4886 441.372
2596 1 -44.0301 2.44358 443.366 -44.0301 2.44358 443.366
2883 1 -45.5998 2.39854 445.361 -45.5998 2.39854 445.361
2881 1 -47.168 2.35377 447.356 -47.168 2.35377 447.356
3164 1 -48.7348 2.30956 449.351 -48.7348 2.30956 449.351
2610 1 -36.3648 2.44554 443.619 -36.3648 2.44554 443.619
2896 1 -37.9361 2.40053 445.613 -37.9361 2.40053 445.613
2893 1 -39.505 2.35523 447.608 -39.505 2.35523 447.608
3178 1 -41.0718 2.31004 449.603 -41.0718 2.31004 449.603
2575 1 -56.2909 0.985096 442.285 -56.2909 0.985096 442.285
2591 1 -47.0472 1.02722 440.54 -47.0472 1.02722 440.54
2588 1 -48.6184 0.982234 442.534 -48.6184 0.982234 442.534
2876 1 -50.1885 0.937443 444.529 -50.1885 0.937443 444.529
2872 1 -51.7574 0.893099 446.523 -51.7574 0.893099 446.523
2869 1 -53.3255 0.849436 448.517 -53.3255 0.849436 448.517
2605 1 -39.3786 1.02814 440.792 -39.3786 1.02814 440.792
2602 1 -40.9511 0.983349 442.786 -40.9511 0.983349 442.786
2889 1 -42.5217 0.938262 444.78 -42.5217 0.938262 444.78
2886 1 -44.0906 0.893197 446.775 -44.0906 0.893197 446.775
3170 1 -45.6577 0.84848 448.77 -45.6577 0.84848 448.77
2899 1 -36.4287 0.89545 447.026 -36.4287 0.89545 447.026
3184 1 -37.9967 0.850046 449.022 -37.9967 0.850046 449.022
2580 1 -53.209 3.94995 441.703 -53.209 3.94995 441.703
2577 1 -54.7799 3.90573 443.697 -54.7799 3.90573 443.697
2864 1 -56.3501 3.86214 445.691 -56.3501 3.86214 445.691
2862 1 -57.135 1.62691 446.688 -57.135 1.62691 446.688
2594 1 -45.5386 3.94902 441.953 -45.5386 3.94902 441.953
2590 1 -47.1091 3.904 443.948 -47.1091 3.904 443.948
2878 1 -48.6782 3.85919 445.942 -48.6782 3.85919 445.942
2875 1 -50.2461 3.81487 447.937 -50.2461 3.81487 447.937
3159 1 -51.813 3.77128 449.931 -51.813 3.77128 449.931
2611 1 -36.2976 3.9948 440.213 -36.2976 3.9948 440.213
2608 1 -37.8716 3.95052 442.205 -37.8716 3.95052 442.205
2894 1 -39.4435 3.90563 444.199 -39.4435 3.90563 444.199
2891 1 -41.0134 3.86045 446.194 -41.0134 3.86045 446.194
2888 1 -42.5812 3.81534 448.189 -42.5812 3.81534 448.189
2904 1 -33.3518 3.86314 446.446 -33.3518 3.86314 446.446
2621 1 -30.9208 3.26368 440.054 -30.9208 3.26368 440.054
2617 1 -33.2154 2.53336 439.635 -33.2154 2.53336 439.635
2614 1 -34.7912 2.48992 441.626 -34.7912 2.48992 441.626
2908 1 -31.06 0.167046 446.863 -31.06 0.167046 446.863
2619 1 -31.7094 1.02865 441.049 -31.7094 1.02865 441.049
2906 1 -31.8456 2.35819 447.86 -31.8456 2.35819 447.86
2905 1 -32.5658 1.67188 445.449 -32.5658 1.67188 445.449
2620 1 -30.9918 1.71609 443.457 -30.9918 1.71609 443.457
3190 1 -34.9215 3.8178 448.44 -34.9215 3.8178 448.44
2902 1 -34.137 1.6268 447.443 -34.137 1.6268 447.443
2903 1 -34.0719 3.1767 444.036 -34.0719 3.1767 444.036
2615 1 -34.0035 0.298047 440.63 -34.0035 0.298047 440.63
2909 1 -30.2736 2.40313 445.867 -30.2736 2.40313 445.867
14 1 -50.9885 0.454116 398.962 -50.9885 4.88157 398.962
7 1 -55.446 3.40855 398.252 -55.446 3.40855 398.252
25 1 -43.2501 0.451162 399.144 -43.2501 4.87861 399.144
38 1 -35.4987 0.372764 399.348 -35.4987 4.80022 399.348
23 1 -44.811 0.396124 401.122 -44.811 4.82358 401.122
287 1 -47.9363 0.312236 405.082 -47.9363 4.73969 405.082
878 1 -38.8437 0.125884 413.562 -38.8437 4.55334 413.562
579 1 -44.9568 0.181738 411.312 -44.9568 4.60919 411.312
585 1 -41.8147 0.258257 407.329 -41.8147 4.68571 407.329
290 1 -46.3749 0.353484 403.097 -46.3749 4.78094 403.097
11 1 -52.4948 0.391665 400.894 -52.4948 4.81912 400.894
595 1 -35.6963 0.201651 409.584 -35.6963 4.6291 409.584
1134 1 -57.351 0.0733102 417.036 -57.351 4.50076 417.036
283 1 -49.5013 0.273338 407.072 -49.5013 4.70079 407.072
582 1 -43.3856 0.220465 409.32 -43.3856 4.64792 409.32
276 1 -54.0633 0.371124 402.843 -54.0633 4.79858 402.843
569 1 -51.0684 0.234983 409.063 -51.0684 4.66244 409.063
847 1 -55.7792 0.115202 415.042 -55.7792 4.54265 415.042
272 1 -55.6154 0.335062 404.828 -55.6154 4.76251 404.828
3 1 -57.192 3.41136 400.032 -57.192 3.41136 400.032
35 1 -37.0894 0.358449 401.348 -37.0894 4.7859 401.348
598 1 -34.1221 0.238031 407.596 -34.1221 4.66548 407.596
850 1 -54.2078 0.155799 413.049 -54.2078 4.58325 413.049
304 1 -38.6701 0.330927 403.346 -38.6701 4.75838 403.346
301 1 -40.2434 0.295171 405.338 -40.2434 4.72262 405.338
269 1 -57.1778 0.295292 406.823 -57.1778 4.72274 406.823
314 1 -32.5467 0.273275 405.611 -32.5467 4.70073 405.611