ITEM: TIMESTEP
0
ITEM: NUMBER OF ATOMS
4630
ITEM: BOX BOUNDS xy xz yz pp pp pp
-5.5340988501799998e+01 9.8360020349999999e+01 0.0000000000000000e+00
0.0000000000000000e+00 4.4274527100805940e+00 0.0000000000000000e+00
3.8000000000000000e+02 5.0000000000000000e+02 0.0000000000000000e+00
ITEM: ATOMS id type x y z xu yu zu
27 1 -41.6741 2.72968 397.836 -41.6741 2.72968 397.836
36 1 -36.267 1.97927 397.461 -36.267 1.97927 397.461
31 1 -39.2841 3.3977 398.084 -39.2841 3.3977 398.084
22 1 -44.7123 4.15509 398.499 -44.7123 4.15509 398.499
20 1 -45.4342 1.94092 399.44 -45.4342 1.94092 399.44
40 1 -33.8795 2.65076 397.717 -33.8795 2.65076 397.717
34 1 -36.9747 4.18106 398.39 -36.9747 4.18106 398.39
17 1 -47.7474 1.17611 399.146 -47.7474 1.17611 399.146
9 1 -53.0938 1.85199 399.494 -53.0938 1.85199 399.494
43 1 -31.5715 3.43515 398.026 -31.5715 3.43515 398.026
12 1 -50.8242 2.70708 399.832 -50.8242 2.70708 399.832
29 1 -40.0389 1.17355 399.023 -40.0389 1.17355 399.023
853 1 -51.2332 3.11082 414.457 -51.2332 3.11082 414.457
873 1 -40.4876 1.63689 413.687 -40.4876 1.63689 413.687
865 1 -44.2988 0.866582 415.419 -44.2988 0.866582 415.419
1174 1 -31.9767 2.30827 416.012 -31.9767 2.30827 416.012
883 1 -35.108 0.897017 413.309 -35.108 0.897017 413.309
863 1 -45.863 2.37536 414.071 -45.863 2.37536 414.071
315 1 -31.5011 1.86569 401.391 -31.5011 1.86569 401.391
307 1 -36.0745 3.30477 404.131 -36.0745 3.30477 404.131
1150 1 -45.7971 0.821643 417.474 -45.7971 0.821643 417.474
855 1 -49.6708 1.60234 415.806 -49.6708 1.60234 415.806
310 1 -34.5773 3.3407 402.087 -34.5773 3.3407 402.087
871 1 -41.2365 3.82914 414.713 -41.2365 3.82914 414.713
16 1 -48.4856 3.38087 400.091 -48.4856 3.38087 400.091
309 1 -34.5012 1.79713 405.481 -34.5012 1.79713 405.481
1156 1 -42.7352 3.78534 416.767 -42.7352 3.78534 416.767
867 1 -43.5501 3.10234 414.392 -43.5501 3.10234 414.392
1159 1 -40.422 0.0851595 417.089 -40.422 4.51261 417.089
1168 1 -35.0431 3.77449 416.711 -35.0431 3.77449 416.711
1170 1 -34.2925 1.58182 415.686 -34.2925 1.58182 415.686
594 1 -35.2497 3.99232 406.506 -35.2497 3.99232 406.506
37 1 -35.3959 2.64025 399.721 -35.3959 2.64025 399.721
851 1 -51.981 0.874098 415.485 -51.981 0.874098 415.485
857 1 -48.9227 3.83895 414.778 -48.9227 3.83895 414.778
592 1 -35.998 1.75942 407.53 -35.998 1.75942 407.53
849 1 -52.7291 3.0645 416.514 -52.7291 3.0645 416.514
877 1 -38.173 2.36345 414.01 -38.173 2.36345 414.01
1143 1 -50.4193 3.7929 416.834 -50.4193 3.7929 416.834
1140 1 -51.9173 3.74573 418.89 -51.9173 3.74573 418.89
845 1 -55.0381 2.33637 416.194 -55.0381 2.33637 416.194
875 1 -38.9224 0.128462 415.036 -38.9224 4.55591 415.036
886 1 -33.6088 0.937719 411.259 -33.6088 0.937719 411.259
891 1 -30.5409 3.89684 410.563 -30.5409 3.89684 410.563
39 1 -33.8335 1.14239 401.061 -33.8335 1.14239 401.061
1177 1 -30.412 0.80022 417.364 -30.412 0.80022 417.364
1167 1 -35.7939 1.53948 417.737 -35.7939 1.53948 417.737
8 1 -53.8658 4.12228 400.551 -53.8658 4.12228 400.551
869 1 -41.9857 1.59365 415.74 -41.9857 1.59365 415.74
1136 1 -54.2265 3.01686 418.571 -54.2265 3.01686 418.571
1162 1 -38.8588 3.00432 418.438 -38.8588 3.00432 418.438
15 1 -49.2383 1.16311 401.162 -49.2383 1.16311 401.162
280 1 -50.7213 1.1317 403.214 -50.7213 1.1317 403.214
277 1 -52.2085 1.10373 405.266 -52.2085 1.10373 405.266
273 1 -53.691 1.06217 407.325 -53.691 1.06217 407.325
560 1 -55.179 1.02026 409.384 -55.179 1.02026 409.384
26 1 -41.5399 1.16054 401.088 -41.5399 1.16054 401.088
294 1 -43.0335 1.13017 403.155 -43.0335 1.13017 403.155
291 1 -44.5236 1.09163 405.21 -44.5236 1.09163 405.21
576 1 -46.0122 1.05014 407.263 -46.0122 1.05014 407.263
573 1 -47.5019 1.00804 409.318 -47.5019 1.00804 409.318
570 1 -48.9929 0.964465 411.373 -48.9929 0.964465 411.373
854 1 -50.486 0.919786 413.429 -50.486 0.919786 413.429
305 1 -36.8217 1.0726 405.154 -36.8217 1.0726 405.154
589 1 -38.3162 1.03403 407.205 -38.3162 1.03403 407.205
586 1 -39.8107 0.994095 409.257 -39.8107 0.994095 409.257
872 1 -41.3058 0.952851 411.31 -41.3058 0.952851 411.31
599 1 -32.1096 0.977115 409.21 -32.1096 0.977115 409.21
1152 1 -45.0478 3.05798 416.446 -45.0478 3.05798 416.446
19 1 -46.1895 4.1269 400.477 -46.1895 4.1269 400.477
286 1 -47.6715 4.08972 402.498 -47.6715 4.08972 402.498
282 1 -49.1506 4.05418 404.556 -49.1506 4.05418 404.556
279 1 -50.6371 4.0199 406.613 -50.6371 4.0199 406.613
565 1 -52.1236 3.97938 408.672 -52.1236 3.97938 408.672
563 1 -53.6135 3.93695 410.731 -53.6135 3.93695 410.731
846 1 -55.1055 3.89282 412.789 -55.1055 3.89282 412.789
32 1 -38.4767 4.12382 400.418 -38.4767 4.12382 400.418
300 1 -39.9704 4.08793 402.458 -39.9704 4.08793 402.458
297 1 -41.4609 4.04994 404.507 -41.4609 4.04994 404.507
293 1 -42.9515 4.01105 406.559 -42.9515 4.01105 406.559
578 1 -44.4424 3.97012 408.613 -44.4424 3.97012 408.613
575 1 -45.9345 3.92777 410.667 -45.9345 3.92777 410.667
860 1 -47.4278 3.88396 412.722 -47.4278 3.88396 412.722
591 1 -36.7461 3.95355 408.556 -36.7461 3.95355 408.556
588 1 -38.2423 3.91331 410.607 -38.2423 3.91331 410.607
874 1 -39.739 3.8718 412.66 -39.739 3.8718 412.66
10 1 -52.3007 2.63382 401.871 -52.3007 2.63382 401.871
274 1 -53.7855 2.61917 403.914 -53.7855 2.61917 403.914
271 1 -55.2593 2.57338 405.979 -55.2593 2.57338 405.979
24 1 -43.1368 2.68276 399.804 -43.1368 2.68276 399.804
21 1 -44.6197 2.63879 401.817 -44.6197 2.63879 401.817
288 1 -46.0991 2.59843 403.863 -46.0991 2.59843 403.863
285 1 -47.5825 2.55529 405.914 -47.5825 2.55529 405.914
571 1 -49.0696 2.5145 407.967 -49.0696 2.5145 407.967
568 1 -50.5582 2.47183 410.023 -50.5582 2.47183 410.023
852 1 -52.0495 2.42801 412.08 -52.0495 2.42801 412.08
848 1 -53.543 2.38304 414.137 -53.543 2.38304 414.137
306 1 -36.8993 2.6126 401.756 -36.8993 2.6126 401.756
302 1 -38.3949 2.57895 403.802 -38.3949 2.57895 403.802
299 1 -39.8875 2.54143 405.854 -39.8875 2.54143 405.854
583 1 -41.3802 2.50231 407.907 -41.3802 2.50231 407.907
581 1 -42.8735 2.46145 409.961 -42.8735 2.46145 409.961
866 1 -44.3677 2.41912 412.016 -44.3677 2.41912 412.016
880 1 -36.6747 2.40516 411.958 -36.6747 2.40516 411.958
312 1 -33.0029 1.83286 403.433 -33.0029 1.83286 403.433
13 1 -49.9732 3.35701 402.167 -49.9732 3.35701 402.167
278 1 -51.4649 3.33254 404.231 -51.4649 3.33254 404.231
275 1 -52.9486 3.297 406.293 -52.9486 3.297 406.293
562 1 -54.4342 3.25495 408.354 -54.4342 3.25495 408.354
1166 1 -36.545 3.73169 418.762 -36.545 3.73169 418.762
889 1 -31.2912 1.66345 411.587 -31.2912 1.66345 411.587
28 1 -40.7955 3.39005 400.092 -40.7955 3.39005 400.092
296 1 -42.2903 3.36042 402.133 -42.2903 3.36042 402.133
292 1 -43.7797 3.3251 404.184 -43.7797 3.3251 404.184
289 1 -45.2678 3.28489 406.237 -45.2678 3.28489 406.237
574 1 -46.7568 3.24304 408.291 -46.7568 3.24304 408.291
572 1 -48.2472 3.20021 410.345 -48.2472 3.20021 410.345
856 1 -49.7392 3.15598 412.401 -49.7392 3.15598 412.401
303 1 -37.5693 3.26713 406.18 -37.5693 3.26713 406.18
587 1 -39.0635 3.2279 408.231 -39.0635 3.2279 408.231
584 1 -40.5582 3.18734 410.284 -40.5582 3.18734 410.284
870 1 -42.0536 3.14548 412.337 -42.0536 3.14548 412.337
6 1 -54.6229 1.93054 401.516 -54.6229 1.93054 401.516
890 1 -30.4748 2.34919 413.964 -30.4748 2.34919 413.964
18 1 -46.9266 1.89525 401.481 -46.9266 1.89525 401.481
284 1 -48.4076 1.85924 403.532 -48.4076 1.85924 403.532
281 1 -49.8939 1.82455 405.587 -49.8939 1.82455 405.587
567 1 -51.3802 1.78661 407.644 -51.3802 1.78661 407.644
564 1 -52.8682 1.74461 409.702 -52.8682 1.74461 409.702
561 1 -54.3593 1.70146 411.76 -54.3593 1.70146 411.76
33 1 -37.7398 1.9295 399.424 -37.7398 1.9295 399.424
30 1 -39.2314 1.88978 401.429 -39.2314 1.88978 401.429
298 1 -40.7163 1.85451 403.478 -40.7163 1.85451 403.478
295 1 -42.2061 1.81694 405.532 -42.2061 1.81694 405.532
580 1 -43.6968 1.77702 407.586 -43.6968 1.77702 407.586
577 1 -45.1883 1.73536 409.64 -45.1883 1.73536 409.64
862 1 -46.681 1.6923 411.694 -46.681 1.6923 411.694
590 1 -37.4941 1.71988 409.581 -37.4941 1.71988 409.581
876 1 -38.9905 1.67899 411.634 -38.9905 1.67899 411.634
1163 1 -38.1082 0.812372 417.412 -38.1082 0.812372 417.412
1153 1 -44.2349 3.74046 418.822 -44.2349 3.74046 418.822
311 1 -33.7516 4.02921 404.457 -33.7516 4.02921 404.457
42 1 -32.3356 1.18354 399.06 -32.3356 1.18354 399.06
1135 1 -54.9759 0.778847 419.599 -54.9759 0.778847 419.599
1171 1 -33.4791 2.26641 418.062 -33.4791 2.26641 418.062
1139 1 -52.6669 1.508 419.918 -52.6669 1.508 419.918
601 1 -31.3598 3.20998 408.186 -31.3598 3.20998 408.186
313 1 -32.2501 4.06461 402.408 -32.2501 4.06461 402.408
858 1 -48.1751 1.64785 413.75 -48.1751 1.64785 413.75
868 1 -42.8017 0.910344 413.364 -42.8017 0.910344 413.364
1147 1 -48.1086 0.0937181 417.154 -48.1086 4.52117 417.154
593 1 -35.177 2.44569 409.907 -35.177 2.44569 409.907
308 1 -35.3262 1.10856 403.105 -35.3262 1.10856 403.105
861 1 -46.6112 0.139276 415.098 -46.6112 4.56673 415.098
1158 1 -41.1721 2.27685 418.116 -41.1721 2.27685 418.116
884 1 -34.3584 3.13124 412.284 -34.3584 3.13124 412.284
881 1 -35.8578 3.08997 414.335 -35.8578 3.08997 414.335
885 1 -33.542 3.81636 414.661 -33.542 3.81636 414.661
859 1 -47.3597 2.33036 416.126 -47.3597 2.33036 416.126
596 1 -33.6793 2.48481 407.858 -33.6793 2.48481 407.858
879 1 -36.6077 0.855198 415.36 -36.6077 0.855198 415.36
1172 1 -32.7278 0.0737267 417.037 -32.7278 4.50118 417.037
1154 1 -43.4849 1.54931 417.794 -43.4849 1.54931 417.794
887 1 -32.7917 1.62318 413.636 -32.7917 1.62318 413.636
597 1 -32.8593 3.17132 410.234 -32.8593 3.17132 410.234
1161 1 -39.6721 2.32067 416.063 -39.6721 2.32067 416.063
1138 1 -53.4776 0.827115 417.542 -53.4776 0.827115 417.542
1149 1 -46.5467 3.01249 418.501 -46.5467 3.01249 418.501
41 1 -33.0768 3.37621 400.052 -33.0768 3.37621 400.052
888 1 -32.0414 3.85719 412.611 -32.0414 3.85719 412.611
1165 1 -37.3579 3.04763 416.386 -37.3579 3.04763 416.386
1141 1 -51.1681 1.55573 417.862 -51.1681 1.55573 417.862
1145 1 -48.8578 2.28426 418.181 -48.8578 2.28426 418.181
600 1 -32.1808 2.52232 405.81 -32.1808 2.52232 405.81
1148 1 -47.2966 0.775613 419.529 -47.2966 0.775613 419.529
882 1 -35.9259 0.211855 410.933 -35.9259 4.63931 410.933
1157 1 -41.9226 0.0408406 419.143 -41.9226 4.46829 419.143
1144 1 -49.6074 0.0470732 419.209 -49.6074 4.47453 419.209
602 1 -30.6097 1.015 407.163 -30.6097 1.015 407.163
1755 1 -29.4902 2.81277 426.539 -29.4902 2.81277 426.539
1460 1 -34.1724 2.90796 422.488 -34.1724 2.90796 422.488
2308 1 -42.4042 3.31473 437.175 -42.4042 3.31473 437.175
2316 1 -37.8358 1.90513 434.414 -37.8358 1.90513 434.414
2312 1 -40.0953 4.04698 437.494 -40.0953 4.04698 437.494
1464 1 -31.8582 3.6355 422.813 -31.8582 3.6355 422.813
1461 1 -33.42 0.715817 421.463 -33.42 0.715817 421.463
2039 1 -31.7048 3.41154 433.009 -31.7048 3.41154 433.009
2613 1 -33.1674 1.8154 438.457 -33.1674 1.8154 438.457
1467 1 -29.5435 4.36273 423.14 -29.5435 4.36273 423.14
2603 1 -38.539 2.54123 438.841 -38.539 2.54123 438.841
1443 1 -43.4241 4.42298 421.197 -43.4241 4.42298 421.197
1748 1 -33.3644 3.59238 424.863 -33.3644 3.59238 424.863
2023 1 -40.146 1.17382 434.094 -40.146 1.17382 434.094
2310 1 -40.8476 1.80875 438.522 -40.8476 1.80875 438.522
1151 1 -44.9852 1.5039 419.849 -44.9852 1.5039 419.849
2303 1 -45.4651 0.343975 437.884 -45.4651 0.343975 437.884
2299 1 -47.7741 4.03941 437.565 -47.7741 4.03941 437.565
2033 1 -34.7711 0.445416 433.71 -34.7711 0.445416 433.71
1433 1 -48.7973 0.728538 421.584 -48.7973 0.728538 421.584
1430 1 -50.2991 0.680516 423.64 -50.2991 0.680516 423.64
1426 1 -51.8019 0.631732 425.696 -51.8019 0.631732 425.696
1713 1 -53.3055 0.582428 427.752 -53.3055 0.582428 427.752
1710 1 -54.8099 0.532873 429.808 -54.8099 0.532873 429.808
2330 1 -29.3468 2.5912 436.731 -29.3468 2.5912 436.731
1160 1 -39.6096 0.768587 419.465 -39.6096 0.768587 419.465
1447 1 -41.112 0.723861 421.518 -41.112 0.723861 421.518
1444 1 -42.6152 0.678191 423.571 -42.6152 0.678191 423.571
1730 1 -44.1191 0.631581 425.625 -44.1191 0.631581 425.625
1727 1 -45.6235 0.584069 427.68 -45.6235 0.584069 427.68
1724 1 -47.1281 0.535747 429.734 -47.1281 0.535747 429.734
2008 1 -48.6329 0.486768 431.79 -48.6329 0.486768 431.79
2006 1 -50.1374 0.43733 433.845 -50.1374 0.43733 433.845
1458 1 -34.9251 0.672454 423.513 -34.9251 0.672454 423.513
1743 1 -36.4308 0.628285 425.563 -36.4308 0.628285 425.563
1740 1 -37.9371 0.583245 427.615 -37.9371 0.583245 427.615
2026 1 -39.4436 0.537268 429.667 -39.4436 0.537268 429.667
2022 1 -40.95 0.490307 431.72 -40.95 0.490307 431.72
2019 1 -42.4559 0.442371 433.774 -42.4559 0.442371 433.774
2309 1 -41.6518 1.12551 436.148 -41.6518 1.12551 436.148
1137 1 -53.4169 3.69748 420.947 -53.4169 3.69748 420.947
1421 1 -54.9179 3.64837 423.003 -54.9179 3.64837 423.003
1439 1 -45.7358 3.69454 420.876 -45.7358 3.69454 420.876
1435 1 -47.2376 3.64761 422.931 -47.2376 3.64761 422.931
1432 1 -48.7404 3.59976 424.987 -48.7404 3.59976 424.987
1719 1 -50.2439 3.55114 427.042 -50.2439 3.55114 427.042
1716 1 -51.748 3.50197 429.098 -51.748 3.50197 429.098
2001 1 -53.2525 3.45249 431.154 -53.2525 3.45249 431.154
1998 1 -54.7571 3.40294 433.209 -54.7571 3.40294 433.209
2323 1 -33.2144 3.36686 435.059 -33.2144 3.36686 435.059
1453 1 -38.0477 3.68799 420.814 -38.0477 3.68799 420.814
1450 1 -39.5512 3.6434 422.866 -39.5512 3.6434 422.866
1446 1 -41.0554 3.5979 424.919 -41.0554 3.5979 424.919
1732 1 -42.5602 3.55147 426.972 -42.5602 3.55147 426.972
1729 1 -44.0653 3.50413 429.026 -44.0653 3.50413 429.026
2014 1 -45.5705 3.45593 431.081 -45.5705 3.45593 431.081
2011 1 -47.0754 3.40701 433.136 -47.0754 3.40701 433.136
1745 1 -34.8712 3.54849 426.912 -34.8712 3.54849 426.912
1742 1 -36.3784 3.50375 428.963 -36.3784 3.50375 428.963
2028 1 -37.8857 3.45805 431.015 -37.8857 3.45805 431.015
2025 1 -39.3927 3.41131 433.067 -39.3927 3.41131 433.067
1427 1 -51.858 2.18891 422.293 -51.858 2.18891 422.293
1424 1 -53.3599 2.13996 424.35 -53.3599 2.13996 424.35
1711 1 -54.863 2.0905 426.406 -54.863 2.0905 426.406
2322 1 -33.9689 1.13034 436.084 -33.9689 1.13034 436.084
1750 1 -31.8042 2.08498 426.213 -31.8042 2.08498 426.213
1155 1 -42.6732 2.23203 420.17 -42.6732 2.23203 420.17
1441 1 -44.1753 2.18623 422.224 -44.1753 2.18623 422.224
1438 1 -45.6782 2.13945 424.278 -45.6782 2.13945 424.278
1725 1 -47.1818 2.09177 426.333 -47.1818 2.09177 426.333
1722 1 -48.686 2.04331 428.388 -48.686 2.04331 428.388
1718 1 -50.1904 1.99425 430.444 -50.1904 1.99425 430.444
2003 1 -51.6949 1.94481 432.5 -51.6949 1.94481 432.5
2000 1 -53.1993 1.89522 434.555 -53.1993 1.89522 434.555
1459 1 -34.9822 2.22369 420.112 -34.9822 2.22369 420.112
1455 1 -36.4861 2.18013 422.163 -36.4861 2.18013 422.163
1452 1 -37.9908 2.13573 424.215 -37.9908 2.13573 424.215
1737 1 -39.4961 2.09044 426.267 -39.4961 2.09044 426.267
1735 1 -41.0017 2.04422 428.319 -41.0017 2.04422 428.319
2020 1 -42.5075 1.99706 430.373 -42.5075 1.99706 430.373
2017 1 -44.0131 1.94899 432.427 -44.0131 1.94899 432.427
2034 1 -34.8202 1.99701 430.312 -34.8202 1.99701 430.312
2031 1 -36.3282 1.95162 432.362 -36.3282 1.95162 432.362
2029 1 -37.0821 4.14224 433.388 -37.0821 4.14224 433.388
1146 1 -48.0469 2.96593 420.557 -48.0469 2.96593 420.557
1431 1 -49.5481 2.91836 422.612 -49.5481 2.91836 422.612
1428 1 -51.0504 2.86993 424.668 -51.0504 2.86993 424.668
1715 1 -52.5536 2.82085 426.724 -52.5536 2.82085 426.724
1712 1 -54.0576 2.77139 428.78 -54.0576 2.77139 428.78
1747 1 -33.3121 2.04142 428.262 -33.3121 2.04142 428.262
1449 1 -40.3607 2.96007 420.491 -40.3607 2.96007 420.491
1445 1 -41.8635 2.91487 422.544 -41.8635 2.91487 422.544
1442 1 -43.367 2.86873 424.598 -43.367 2.86873 424.598
1728 1 -44.8712 2.82166 426.652 -44.8712 2.82166 426.652
1726 1 -46.3758 2.77373 428.707 -46.3758 2.77373 428.707
2010 1 -47.8805 2.72505 430.762 -47.8805 2.72505 430.762
2007 1 -49.3852 2.67582 432.818 -49.3852 2.67582 432.818
1456 1 -35.6779 2.8642 424.538 -35.6779 2.8642 424.538
1741 1 -37.1839 2.8196 426.589 -37.1839 2.8196 426.589
1738 1 -38.6903 2.7741 428.641 -38.6903 2.7741 428.641
2024 1 -40.1968 2.72764 430.693 -40.1968 2.72764 430.693
2021 1 -41.703 2.68018 432.747 -41.703 2.68018 432.747
2035 1 -34.0168 2.6818 432.685 -34.0168 2.6818 432.685
1754 1 -30.2969 2.12783 424.164 -30.2969 2.12783 424.164
1423 1 -54.1672 1.45929 421.975 -54.1672 1.45929 421.975
2044 1 -28.6369 1.94851 432.311 -28.6369 1.94851 432.311
1437 1 -46.4866 1.45747 421.904 -46.4866 1.45747 421.904
1434 1 -47.9889 1.41006 423.959 -47.9889 1.41006 423.959
1721 1 -49.492 1.36181 426.014 -49.492 1.36181 426.014
1717 1 -50.9959 1.31288 428.07 -50.9959 1.31288 428.07
1714 1 -52.5002 1.26353 430.126 -52.5002 1.26353 430.126
1999 1 -54.0048 1.21398 432.182 -54.0048 1.21398 432.182
1164 1 -37.2962 1.49622 419.788 -37.2962 1.49622 419.788
1451 1 -38.7993 1.45208 421.84 -38.7993 1.45208 421.84
1448 1 -40.3032 1.40704 423.892 -40.3032 1.40704 423.892
1734 1 -41.8078 1.36107 425.945 -41.8078 1.36107 425.945
1731 1 -43.3128 1.31418 427.999 -43.3128 1.31418 427.999
2016 1 -44.8179 1.2664 430.053 -44.8179 1.2664 430.053
2012 1 -46.323 1.21783 432.108 -46.323 1.21783 432.108
2009 1 -47.8277 1.16861 434.163 -47.8277 1.16861 434.163
1746 1 -34.1178 1.35681 425.887 -34.1178 1.35681 425.887
1744 1 -35.6248 1.31251 427.938 -35.6248 1.31251 427.938
2030 1 -37.1321 1.2673 429.989 -37.1321 1.2673 429.989
2027 1 -38.6393 1.22108 432.041 -38.6393 1.22108 432.041
2325 1 -32.4597 1.17562 434.034 -32.4597 1.17562 434.034
1749 1 -32.5581 4.27703 427.237 -32.5581 4.27703 427.237
1425 1 -52.6088 4.37824 423.322 -52.6088 4.37824 423.322
1736 1 -40.2489 4.28117 427.293 -40.2489 4.28117 427.293
1142 1 -50.3573 2.23708 420.237 -50.3573 2.23708 420.237
1720 1 -49.4382 4.23257 429.416 -49.4382 4.23257 429.416
2005 1 -50.9427 4.18329 431.472 -50.9427 4.18329 431.472
2002 1 -52.4472 4.13374 433.527 -52.4472 4.13374 433.527
1169 1 -34.2306 0.0314298 419.087 -34.2306 4.45888 419.087
1723 1 -47.9338 4.28136 427.361 -47.9338 4.28136 427.361
1440 1 -44.9267 4.37668 423.251 -44.9267 4.37668 423.251
1733 1 -41.7546 4.23448 429.346 -41.7546 4.23448 429.346
2018 1 -43.2603 4.18686 431.4 -43.2603 4.18686 431.4
2015 1 -44.7657 4.13837 433.454 -44.7657 4.13837 433.454
2036 1 -34.0661 4.23306 429.287 -34.0661 4.23306 429.287
2032 1 -35.5743 4.18817 431.337 -35.5743 4.18817 431.337
2326 1 -31.6581 1.86104 436.407 -31.6581 1.86104 436.407
1752 1 -31.0505 4.32021 425.188 -31.0505 4.32021 425.188
1457 1 -35.7341 4.41574 421.138 -35.7341 4.41574 421.138
2043 1 -29.4399 1.26294 429.937 -29.4399 1.26294 429.937
2286 1 -54.7033 1.84572 436.611 -54.7033 1.84572 436.611
2319 1 -35.4769 1.08371 438.135 -35.4769 1.08371 438.135
1436 1 -46.4299 4.32945 425.306 -46.4299 4.32945 425.306
1422 1 -54.1113 4.329 425.378 -54.1113 4.329 425.378
1173 1 -31.9156 0.758408 419.413 -31.9156 0.758408 419.413
2293 1 -50.8349 1.06913 438.275 -50.8349 1.06913 438.275
2289 1 -53.1448 0.338021 437.957 -53.1448 0.338021 437.957
2295 1 -49.2766 3.98941 439.622 -49.2766 3.98941 439.622
1465 1 -31.1054 1.44307 421.789 -31.1054 1.44307 421.789
2315 1 -37.7862 0.351715 437.814 -37.7862 0.351715 437.814
2331 1 -29.3924 4.14076 433.335 -29.3924 4.14076 433.335
2297 1 -48.5255 1.8007 438.593 -48.5255 1.8007 438.593
2324 1 -32.4129 4.05213 437.432 -32.4129 4.05213 437.432
2306 1 -43.1563 1.07628 438.203 -43.1563 1.07628 438.203
2285 1 -54.6472 0.288648 440.013 -54.6472 0.288648 440.013
1462 1 -32.6112 1.40031 423.838 -32.6112 1.40031 423.838
1751 1 -30.9988 2.76992 428.587 -30.9988 2.76992 428.587
2329 1 -30.1478 1.90532 434.358 -30.1478 1.90532 434.358
2042 1 -30.1949 3.45517 430.961 -30.1949 3.45517 430.961
2041 1 -30.9499 1.21975 431.985 -30.9499 1.21975 431.985
2593 1 -43.9079 3.26511 439.23 -43.9079 3.26511 439.23
2328 1 -30.1023 0.355384 437.755 -30.1023 0.355384 437.755
2301 1 -46.2166 2.53272 438.912 -46.2166 2.53272 438.912
1466 1 -30.3527 3.67792 420.765 -30.3527 3.67792 420.765
2298 1 -48.5798 3.35755 435.191 -48.5798 3.35755 435.191
2321 1 -34.7231 3.32092 437.109 -34.7231 3.32092 437.109
2313 1 -39.3424 1.85749 436.467 -39.3424 1.85749 436.467
2294 1 -50.0835 3.30778 437.247 -50.0835 3.30778 437.247
2304 1 -44.7132 2.58256 436.856 -44.7132 2.58256 436.856
2300 1 -47.0224 1.85061 436.537 -47.0224 1.85061 436.537
2290 1 -52.3932 2.57655 436.929 -52.3932 2.57655 436.929
2318 1 -36.2793 0.399194 435.762 -36.2793 0.399194 435.762
2327 1 -30.903 4.09706 435.382 -30.903 4.09706 435.382
2004 1 -50.8895 2.62624 434.873 -50.8895 2.62624 434.873
2013 1 -45.5182 1.90011 434.482 -45.5182 1.90011 434.482
2288 1 -53.9514 4.08417 435.583 -53.9514 4.08417 435.583
2037 1 -33.2623 0.490466 431.66 -33.2623 0.490466 431.66
1739 1 -38.7434 4.32692 425.241 -38.7434 4.32692 425.241
1753 1 -30.2444 0.577703 427.563 -30.2444 0.577703 427.563
2307 1 -43.2086 2.63179 434.801 -43.2086 2.63179 434.801
2314 1 -38.5893 4.09518 435.441 -38.5893 4.09518 435.441
2040 1 -31.7533 0.534502 429.611 -31.7533 0.534502 429.611
2320 1 -35.5253 2.63619 434.736 -35.5253 2.63619 434.736
2292 1 -51.6414 0.387665 435.901 -51.6414 0.387665 435.901
2311 1 -40.899 3.36352 435.12 -40.899 3.36352 435.12
2302 1 -46.2704 4.08915 435.51 -46.2704 4.08915 435.51
2296 1 -49.3318 1.11896 436.219 -49.3318 1.11896 436.219
1463 1 -32.6677 2.95093 420.438 -32.6677 2.95093 420.438
2287 1 -53.8961 2.52701 438.985 -53.8961 2.52701 438.985
2291 1 -51.5861 3.25796 439.303 -51.5861 3.25796 439.303
2317 1 -37.0329 2.58934 436.788 -37.0329 2.58934 436.788
2038 1 -32.5078 2.72633 430.636 -32.5078 2.72633 430.636
2305 1 -43.9611 0.393539 435.828 -43.9611 0.393539 435.828
2332 1 -28.5911 0.399235 435.708 -28.5911 0.399235 435.708
1468 1 -29.6002 1.48515 419.741 -29.6002 1.48515 419.741
1454 1 -37.2384 4.37177 423.189 -37.2384 4.37177 423.189
1429 1 -51.1074 4.42683 421.265 -51.1074 4.42683 421.265
1175 1 -31.1637 2.99314 418.389 -31.1637 2.99314 418.389
2616 1 -30.8116 0.995421 442.178 -30.8116 0.995421 442.178
2901 1 -32.3179 0.947564 444.231 -32.3179 0.947564 444.231
2907 1 -29.2575 3.91795 443.526 -29.2575 3.91795 443.526
3194 1 -29.9616 0.1267 447.954 -29.9616 0.1267 447.954
2587 1 -46.9676 0.293921 439.94 -46.9676 0.293921 439.94
2597 1 -41.5996 3.99774 439.549 -41.5996 3.99774 439.549
2584 1 -48.4686 0.243682 441.997 -48.4686 0.243682 441.997
2581 1 -49.9678 0.19361 444.053 -49.9678 0.19361 444.053
2868 1 -51.4653 0.144071 446.11 -51.4653 0.144071 446.11
2865 1 -52.9613 0.0954227 448.167 -52.9613 0.0954227 448.167
2601 1 -39.2914 0.303008 439.869 -39.2914 0.303008 439.869
2598 1 -40.7943 0.253246 441.924 -40.7943 0.253246 441.924
2885 1 -42.2947 0.202742 443.981 -42.2947 0.202742 443.981
2882 1 -43.7925 0.151923 446.039 -43.7925 0.151923 446.039
2879 1 -45.2875 0.101289 448.098 -45.2875 0.101289 448.098
2612 1 -33.1197 0.26304 441.857 -33.1197 0.26304 441.857
2898 1 -34.6245 0.2143 443.911 -34.6245 0.2143 443.911
2895 1 -36.1257 0.164062 445.967 -36.1257 0.164062 445.967
3180 1 -37.6231 0.112793 448.025 -37.6231 0.112793 448.025
2576 1 -53.0876 3.20837 441.36 -53.0876 3.20837 441.36
2574 1 -54.5879 3.1593 443.416 -54.5879 3.1593 443.416
2589 1 -45.4099 3.21491 441.287 -45.4099 3.21491 441.287
2586 1 -46.9098 3.16446 443.344 -46.9098 3.16446 443.344
2874 1 -48.4078 3.11416 445.401 -48.4078 3.11416 445.401
2871 1 -49.9037 3.06441 447.458 -49.9037 3.06441 447.458
3155 1 -51.3979 3.01561 449.515 -51.3979 3.01561 449.515
2607 1 -36.2303 3.2736 439.162 -36.2303 3.2736 439.162
2604 1 -37.7354 3.22491 441.216 -37.7354 3.22491 441.216
2600 1 -39.2379 3.17504 443.272 -39.2379 3.17504 443.272
2887 1 -40.7374 3.12434 445.329 -40.7374 3.12434 445.329
2884 1 -42.2338 3.0733 447.387 -42.2338 3.0733 447.387
3168 1 -43.7272 3.02252 449.447 -43.7272 3.02252 449.447
2900 1 -33.0697 3.13665 445.258 -33.0697 3.13665 445.258
2897 1 -34.5702 3.08617 447.315 -34.5702 3.08617 447.315
2582 1 -50.0274 1.75067 440.65 -50.0274 1.75067 440.65
2579 1 -51.5278 1.70085 442.706 -51.5278 1.70085 442.706
2866 1 -53.0268 1.65155 444.763 -53.0268 1.65155 444.763
2578 1 -52.337 1.01939 440.331 -52.337 1.01939 440.331
2595 1 -42.351 1.75907 440.577 -42.351 1.75907 440.577
2592 1 -43.8522 1.70872 442.634 -43.8522 1.70872 442.634
2880 1 -45.3511 1.65809 444.691 -45.3511 1.65809 444.691
2877 1 -46.8477 1.6076 446.749 -46.8477 1.6076 446.749
2873 1 -48.342 1.55771 448.807 -48.342 1.55771 448.807
2609 1 -34.6748 1.76823 440.509 -34.6748 1.76823 440.509
2606 1 -36.1797 1.71953 442.563 -36.1797 1.71953 442.563
2892 1 -37.6817 1.66949 444.619 -37.6817 1.66949 444.619
2890 1 -39.1802 1.61854 446.677 -39.1802 1.61854 446.677
3174 1 -40.6752 1.56722 448.736 -40.6752 1.56722 448.736
2618 1 -30.0573 3.23234 441.153 -30.0573 3.23234 441.153
2585 1 -47.7183 2.48253 440.968 -47.7183 2.48253 440.968
2583 1 -49.2184 2.43233 443.025 -49.2184 2.43233 443.025
2870 1 -50.7168 2.38248 445.082 -50.7168 2.38248 445.082
2867 1 -52.2135 2.33334 447.139 -52.2135 2.33334 447.139
2863 1 -53.7088 2.28526 449.195 -53.7088 2.28526 449.195
2599 1 -40.0431 2.49197 440.896 -40.0431 2.49197 440.896
2596 1 -41.5449 2.44179 442.953 -41.5449 2.44179 442.953
2883 1 -43.044 2.39107 445.01 -43.044 2.39107 445.01
2881 1 -44.5403 2.34028 447.068 -44.5403 2.34028 447.068
3164 1 -46.0341 2.28993 449.127 -46.0341 2.28993 449.127
2610 1 -33.8725 2.4526 442.883 -33.8725 2.4526 442.883
2896 1 -35.3756 2.40307 444.938 -35.3756 2.40307 444.938
2893 1 -36.8749 2.35225 446.996 -36.8749 2.35225 446.996
3178 1 -38.3703 2.30069 449.055 -38.3703 2.30069 449.055
2575 1 -53.8379 0.970028 442.388 -53.8379 0.970028 442.388
2591 1 -44.6591 1.02633 440.258 -44.6591 1.02633 440.258
2588 1 -46.1601 0.975965 442.315 -46.1601 0.975965 442.315
2876 1 -47.6591 0.925541 444.372 -47.6591 0.925541 444.372
2872 1 -49.156 0.875464 446.43 -49.156 0.875464 446.43
2869 1 -50.651 0.826142 448.487 -50.651 0.826142 448.487
2605 1 -36.9831 1.03569 440.189 -36.9831 1.03569 440.189
2602 1 -38.487 0.986377 442.244 -38.487 0.986377 442.244
2889 1 -39.988 0.936035 444.3 -39.988 0.936035 444.3
2886 1 -41.486 0.885099 446.358 -41.486 0.885099 446.358
3170 1 -42.9809 0.834115 448.417 -42.9809 0.834115 448.417
2899 1 -33.8205 0.897868 446.286 -33.8205 0.897868 446.286
3184 1 -35.3188 0.84674 448.344 -35.3188 0.84674 448.344
2580 1 -50.7778 3.93944 441.678 -50.7778 3.93944 441.678
2577 1 -52.2775 3.88984 443.735 -52.2775 3.88984 443.735
2864 1 -53.7757 3.84092 445.791 -53.7757 3.84092 445.791
2862 1 -54.5244 1.60309 446.819 -54.5244 1.60309 446.819
2594 1 -43.1019 3.94768 441.605 -43.1019 3.94768 441.605
2590 1 -44.602 3.89714 443.662 -44.602 3.89714 443.662
2878 1 -46.0997 3.84652 445.72 -46.0997 3.84652 445.72
2875 1 -47.5951 3.79628 447.778 -47.5951 3.79628 447.778
3159 1 -49.0884 3.74686 449.836 -49.0884 3.74686 449.836
2611 1 -33.9214 4.00574 439.483 -33.9214 4.00574 439.483
2608 1 -35.4276 3.95779 441.536 -35.4276 3.95779 441.536
2894 1 -36.9311 3.90838 443.591 -36.9311 3.90838 443.591
2891 1 -38.4313 3.85782 445.648 -38.4313 3.85782 445.648
2888 1 -39.9281 3.80661 447.706 -39.9281 3.80661 447.706
2904 1 -30.7638 3.8701 445.579 -30.7638 3.8701 445.579
2621 1 -28.5469 3.27733 439.104 -28.5469 3.27733 439.104
2617 1 -30.8574 2.54665 438.78 -30.8574 2.54665 438.78
2614 1 -32.3662 2.5005 440.831 -32.3662 2.5005 440.831
2908 1 -28.4578 0.175821 445.9 -28.4578 0.175821 445.9
2619 1 -29.3024 1.04133 440.128 -29.3024 1.04133 440.128
2906 1 -29.2103 2.36528 446.927 -29.2103 2.36528 446.927
2905 1 -30.0112 1.68057 444.552 -30.0112 1.68057 444.552
2620 1 -28.5031 1.72733 442.501 -28.5031 1.72733 442.501
3190 1 -32.2658 3.82018 447.634 -32.2658 3.82018 447.634
2902 1 -31.5154 1.63165 446.606 -31.5154 1.63165 446.606
2903 1 -31.5652 3.18546 443.204 -31.5652 3.18546 443.204
2615 1 -31.6121 0.31006 439.805 -31.6121 0.31006 439.805
2909 1 -27.7041 2.41319 444.875 -27.7041 2.41319 444.875
14 1 -50.1364 0.505264 398.898 -50.1364 4.93272 398.898
7 1 -54.6213 3.45834 398.371 -54.6213 3.45834 398.371
25 1 -42.3916 0.503302 398.765 -42.3916 4.93075 398.765
38 1 -34.6303 0.426879 398.655 -34.6303 4.85433 398.655
23 1 -43.8739 0.448178 400.804 -43.8739 4.87563 400.804
287 1 -46.8407 0.362127 404.887 -46.8407 4.78958 404.887
878 1 -37.4238 0.170718 412.984 -37.4238 4.59817 412.984
579 1 -43.6205 0.22675 410.988 -43.6205 4.6542 410.988
585 1 -40.6336 0.308468 406.881 -40.6336 4.73592 406.881
290 1 -45.3589 0.404807 402.84 -45.3589 4.83226 402.84
11 1 -51.5639 0.442262 400.889 -51.5639 4.86971 400.889
595 1 -34.4282 0.251729 408.882 -34.4282 4.67918 408.882
283 1 -48.326 0.321 406.94 -48.326 4.74845 406.94
582 1 -42.1267 0.268381 408.934 -42.1267 4.69583 408.934
276 1 -53.0517 0.420572 402.901 -53.0517 4.84803 402.901
569 1 -49.8136 0.279585 408.994 -49.8136 4.70704 408.994
847 1 -54.2903 0.146201 415.166 -54.2903 4.57365 415.166
272 1 -54.5217 0.382157 404.95 -54.5217 4.80961 404.95
35 1 -36.1425 0.412471 400.716 -36.1425 4.83992 400.716
598 1 -32.9301 0.290088 406.834 -32.9301 4.71754 406.834
850 1 -52.796 0.191986 413.108 -52.796 4.61944 413.108
304 1 -37.6449 0.384016 402.774 -37.6449 4.81147 402.774
301 1 -39.1403 0.347078 404.828 -39.1403 4.77453 404.828
314 1 -31.4308 0.326879 404.787 -31.4308 4.75433 404.787
864 1 -45.1152 0.183688 413.043 -45.1152 4.61114 413.043
566 1 -51.3035 0.236264 411.051 -51.3035 4.66372 411.051
1176 1 -31.2257 0.11513 414.988 -31.2257 4.54258 414.988
85 1 -6.17021 1.2319 395.019 -6.17021 1.2319 395.019
58 1 -23.0717 1.15838 396.999 -23.0717 1.15838 396.999
45 1 -30.8628 1.23339 397.098 -30.8628 1.23339 397.098
49 1 -28.4755 1.90441 397.355 -28.4755 1.90441 397.355
72 1 -14.6551 3.4261 396.034 -14.6551 3.4261 396.034
80 1 -9.21909 2.65329 395.664 -9.21909 2.65329 395.664
75 1 -12.2702 4.10062 396.296 -12.2702 4.10062 396.296
83 1 -6.89694 3.43184 395.941 -6.89694 3.43184 395.941
52 1 -26.168 2.68882 397.667 -26.168 2.68882 397.667
61 1 -20.7648 1.9436 397.312 -20.7648 1.9436 397.312
63 1 -20.0551 4.16941 396.385 -20.0551 4.16941 396.385
87 1 -4.54241 4.10929 396.215 -4.54241 4.10929 396.215
70 1 -15.3624 1.20044 396.962 -15.3624 1.20044 396.962
47 1 -29.2275 4.10796 398.294 -29.2275 4.10796 398.294