ITEM: TIMESTEP
0
ITEM: NUMBER OF ATOMS
4630
ITEM: BOX BOUNDS xy xz yz pp pp pp
-5.7140988501799995e+01 1.0016002035000000e+02 0.0000000000000000e+00
0.0000000000000000e+00 4.4274527100805940e+00 0.0000000000000000e+00
3.8000000000000000e+02 5.0000000000000000e+02 0.0000000000000000e+00
ITEM: ATOMS id type x y z xu yu zu
27 1 -42.4709 2.66049 398.338 -42.4709 2.66049 398.338
36 1 -37.0458 1.91158 398.112 -37.0458 1.91158 398.112
31 1 -40.0876 3.33099 398.653 -40.0876 3.33099 398.653
22 1 -45.5327 4.08657 398.916 -45.5327 4.08657 398.916
20 1 -46.286 1.87179 399.835 -46.286 1.87179 399.835
40 1 -34.6651 2.58514 398.433 -34.6651 2.58514 398.433
34 1 -37.7831 4.11305 399.02 -37.7831 4.11305 399.02
17 1 -48.5949 1.10793 399.479 -48.5949 1.10793 399.479
9 1 -53.9625 1.78409 399.678 -53.9625 1.78409 399.678
43 1 -32.3623 3.36802 398.804 -32.3623 3.36802 398.804
12 1 -51.6967 2.63552 400.076 -51.6967 2.63552 400.076
5 1 -56.339 1.16382 399.358 -56.339 1.16382 399.358
29 1 -40.8701 1.10635 399.57 -40.8701 1.10635 399.57
853 1 -52.5248 3.05954 414.658 -52.5248 3.05954 414.658
873 1 -41.7312 1.5853 414.192 -41.7312 1.5853 414.192
865 1 -45.5984 0.817315 415.814 -45.5984 0.817315 415.814
1174 1 -33.265 2.26218 416.749 -33.265 2.26218 416.749
883 1 -36.3297 0.845924 413.965 -36.3297 0.845924 413.965
863 1 -47.1299 2.32358 414.424 -47.1299 2.32358 414.424
315 1 -32.3864 1.8015 402.166 -32.3864 1.8015 402.166
307 1 -37.0437 3.24167 404.777 -37.0437 3.24167 404.777
1150 1 -47.1556 0.77593 417.823 -47.1556 0.77593 417.823
855 1 -50.9946 1.55352 416.048 -50.9946 1.55352 416.048
310 1 -35.4865 3.27617 402.777 -35.4865 3.27617 402.777
871 1 -42.5098 3.7791 415.196 -42.5098 3.7791 415.196
16 1 -49.3627 3.31196 400.402 -49.3627 3.31196 400.402
309 1 -35.5055 1.73581 406.167 -35.5055 1.73581 406.167
1156 1 -44.0673 3.7386 417.204 -44.0673 3.7386 417.204
867 1 -44.8201 3.05141 414.81 -44.8201 3.05141 414.81
1159 1 -41.7574 0.0392752 417.59 -41.7574 4.46673 417.59
1168 1 -36.3566 3.72893 417.362 -36.3566 3.72893 417.362
1170 1 -35.5768 1.53471 416.359 -35.5768 1.53471 416.359
594 1 -36.2839 3.93194 407.17 -36.2839 3.93194 407.17
37 1 -36.24 2.57474 400.393 -36.24 2.57474 400.393
851 1 -53.3025 0.824834 415.663 -53.3025 0.824834 415.663
857 1 -50.2167 3.78822 415.044 -50.2167 3.78822 415.044
592 1 -37.0622 1.70006 408.172 -37.0622 1.70006 408.172
849 1 -54.0804 3.01737 416.668 -54.0804 3.01737 416.668
877 1 -39.4202 2.31283 414.579 -39.4202 2.31283 414.579
1143 1 -51.7727 3.7461 417.053 -51.7727 3.7461 417.053
1140 1 -53.3297 3.70327 419.063 -53.3297 3.70327 419.063
845 1 -56.3877 2.28901 416.283 -56.3877 2.28901 416.283
875 1 -40.1992 0.0793682 415.583 -40.1992 4.50682 415.583
886 1 -34.7714 0.88385 411.959 -34.7714 0.88385 411.959
891 1 -31.6785 3.84253 411.349 -31.6785 3.84253 411.349
39 1 -34.7126 1.07702 401.772 -34.7126 1.07702 401.772
1177 1 -31.7333 0.756735 418.141 -31.7333 0.756735 418.141
1167 1 -37.1364 1.4955 418.365 -37.1364 1.4955 418.365
8 1 -54.766 4.05311 400.71 -54.766 4.05311 400.71
869 1 -43.2885 1.54524 416.2 -43.2885 1.54524 416.2
1136 1 -55.6371 2.97431 418.678 -55.6371 2.97431 418.678
1162 1 -40.2267 2.961 418.98 -40.2267 2.961 418.98
15 1 -50.1474 1.09481 401.449 -50.1474 1.09481 401.449
280 1 -51.6943 1.06414 403.455 -51.6943 1.06414 403.455
277 1 -53.2454 1.03803 405.46 -53.2454 1.03803 405.46
273 1 -54.791 0.99889 407.472 -54.791 0.99889 407.472
560 1 -56.3414 0.959772 409.484 -56.3414 0.959772 409.484
26 1 -42.4324 1.09395 401.589 -42.4324 1.09395 401.589
294 1 -43.9878 1.06436 403.61 -43.9878 1.06436 403.61
291 1 -45.5396 1.02708 405.619 -45.5396 1.02708 405.619
576 1 -47.0901 0.98766 407.627 -47.0901 0.98766 407.627
573 1 -48.6415 0.948275 409.635 -48.6415 0.948275 409.635
570 1 -50.1937 0.907807 411.644 -50.1937 0.907807 411.644
854 1 -51.7474 0.866608 413.653 -51.7474 0.866608 413.653
305 1 -37.8209 1.01035 405.777 -37.8209 1.01035 405.777
589 1 -39.3759 0.973695 407.783 -39.3759 0.973695 407.783
586 1 -40.9308 0.936011 409.79 -40.9308 0.936011 409.79
872 1 -42.486 0.89738 411.798 -42.486 0.89738 411.798
599 1 -33.213 0.920694 409.955 -33.213 0.920694 409.955
4 1 -56.3275 4.06287 402.663 -56.3275 4.06287 402.663
1152 1 -46.3769 3.01045 416.818 -46.3769 3.01045 416.818
19 1 -47.0725 4.05765 400.848 -47.0725 4.05765 400.848
286 1 -48.6161 4.02173 402.825 -48.6161 4.02173 402.825
282 1 -50.1587 3.98814 404.838 -50.1587 3.98814 404.838
279 1 -51.7084 3.95619 406.848 -51.7084 3.95619 406.848
565 1 -53.2574 3.91838 408.861 -53.2574 3.91838 408.861
563 1 -54.8092 3.87902 410.872 -54.8092 3.87902 410.872
846 1 -56.3627 3.83856 412.883 -56.3627 3.83856 412.883
32 1 -39.3444 4.05665 401.004 -39.3444 4.05665 401.004
300 1 -40.899 4.02218 402.999 -40.899 4.02218 402.999
297 1 -42.4506 3.98571 405.003 -42.4506 3.98571 405.003
293 1 -44.0025 3.9486 407.01 -44.0025 3.9486 407.01
578 1 -45.5548 3.90994 409.018 -45.5548 3.90994 409.018
575 1 -47.1079 3.87035 411.026 -47.1079 3.87035 411.026
860 1 -48.6617 3.82969 413.035 -48.6617 3.82969 413.035
591 1 -37.8403 3.89529 409.175 -37.8403 3.89529 409.175
588 1 -39.3964 3.85749 411.181 -39.3964 3.85749 411.181
874 1 -40.9528 3.81873 413.188 -40.9528 3.81873 413.188
10 1 -53.237 2.56357 402.07 -53.237 2.56357 402.07
274 1 -54.7872 2.55104 404.066 -54.7872 2.55104 404.066
271 1 -56.325 2.50769 406.084 -56.325 2.50769 406.084
24 1 -43.9946 2.61302 400.261 -43.9946 2.61302 400.261
21 1 -45.5382 2.57075 402.23 -45.5382 2.57075 402.23
288 1 -47.0796 2.53166 404.231 -47.0796 2.53166 404.231
285 1 -48.6256 2.49068 406.237 -48.6256 2.49068 406.237
571 1 -50.1752 2.45259 408.243 -50.1752 2.45259 408.243
568 1 -51.7256 2.41293 410.253 -51.7256 2.41293 410.253
852 1 -53.2781 2.37246 412.263 -53.2781 2.37246 412.263
848 1 -54.8324 2.33132 414.273 -54.8324 2.33132 414.273
306 1 -37.8031 2.54756 402.383 -37.8031 2.54756 402.383
302 1 -39.359 2.51503 404.384 -39.359 2.51503 404.384
299 1 -40.9123 2.47915 406.391 -40.9123 2.47915 406.391
583 1 -42.4659 2.44204 408.399 -42.4659 2.44204 408.399
581 1 -44.0199 2.40362 410.407 -44.0199 2.40362 410.407
866 1 -45.5746 2.36413 412.416 -45.5746 2.36413 412.416
880 1 -37.8628 2.35167 412.573 -37.8628 2.35167 412.573
312 1 -33.9475 1.76992 404.164 -33.9475 1.76992 404.164
13 1 -50.9136 3.28906 402.431 -50.9136 3.28906 402.431
278 1 -52.4696 3.26578 404.449 -52.4696 3.26578 404.449
275 1 -54.0171 3.23247 406.463 -54.0171 3.23247 406.463
562 1 -55.5655 3.19298 408.478 -55.5655 3.19298 408.478
1166 1 -37.9163 3.68932 419.368 -37.9163 3.68932 419.368
889 1 -32.4582 1.6105 412.35 -32.4582 1.6105 412.35
28 1 -41.6582 3.32313 400.615 -41.6582 3.32313 400.615
296 1 -43.214 3.29407 402.61 -43.214 3.29407 402.61
292 1 -44.7649 3.25984 404.616 -44.7649 3.25984 404.616
289 1 -46.3148 3.2213 406.624 -46.3148 3.2213 406.624
574 1 -47.8656 3.18187 408.631 -47.8656 3.18187 408.631
572 1 -49.4174 3.14195 410.639 -49.4174 3.14195 410.639
856 1 -50.9703 3.10101 412.649 -50.9703 3.10101 412.649
303 1 -38.5988 3.20578 406.78 -38.5988 3.20578 406.78
587 1 -40.1534 3.16864 408.786 -40.1534 3.16864 408.786
584 1 -41.7084 3.13052 410.794 -41.7084 3.13052 410.794
870 1 -43.2639 3.09144 412.802 -43.2639 3.09144 412.802
6 1 -55.5556 1.86078 401.652 -55.5556 1.86078 401.652
890 1 -31.7048 2.30004 414.745 -31.7048 2.30004 414.745
18 1 -47.8398 1.82664 401.831 -47.8398 1.82664 401.831
284 1 -49.3841 1.79224 403.837 -49.3841 1.79224 403.837
281 1 -50.9337 1.75961 405.846 -50.9337 1.75961 405.846
567 1 -52.4829 1.72422 407.855 -52.4829 1.72422 407.855
564 1 -54.0331 1.68507 409.867 -54.0331 1.68507 409.867
561 1 -55.5858 1.64528 411.878 -55.5858 1.64528 411.878
33 1 -38.5783 1.86175 400.03 -38.5783 1.86175 400.03
30 1 -40.1292 1.82322 401.991 -40.1292 1.82322 401.991
298 1 -41.6753 1.78951 403.997 -41.6753 1.78951 403.997
295 1 -43.2265 1.75357 406.005 -43.2265 1.75357 406.005
580 1 -44.7785 1.71563 408.013 -44.7785 1.71563 408.013
577 1 -46.3312 1.6765 410.022 -46.3312 1.6765 410.022
862 1 -47.8847 1.63641 412.03 -47.8847 1.63641 412.03
590 1 -38.6183 1.6628 410.178 -38.6183 1.6628 410.178
876 1 -40.1746 1.6245 412.185 -40.1746 1.6245 412.185
1163 1 -39.4471 0.767408 417.977 -39.4471 0.767408 417.977
1153 1 -45.6254 3.69727 419.212 -45.6254 3.69727 419.212
311 1 -34.726 3.96706 405.166 -34.726 3.96706 405.166
42 1 -33.1565 1.11673 399.814 -33.1565 1.11673 399.814
1135 1 -56.4157 0.738754 419.683 -56.4157 0.738754 419.683
1171 1 -34.8253 2.22347 418.754 -34.8253 2.22347 418.754
1139 1 -54.1085 1.46786 420.068 -54.1085 1.46786 420.068
601 1 -32.4336 3.15237 408.954 -32.4336 3.15237 408.954
313 1 -33.1648 4.00104 403.161 -33.1648 4.00104 403.161
858 1 -49.4391 1.5953 414.039 -49.4391 1.5953 414.039
868 1 -44.0419 0.857825 413.806 -44.0419 0.857825 413.806
1147 1 -49.4644 0.0473941 417.438 -49.4644 4.47485 417.438
593 1 -36.3056 2.38958 410.567 -36.3056 2.38958 410.567
308 1 -36.2652 1.04473 403.773 -36.2652 1.04473 403.773
861 1 -47.9079 0.0892242 415.429 -47.9079 4.51668 415.429
1158 1 -42.5367 2.23265 418.594 -42.5367 2.23265 418.594
884 1 -35.5505 3.07874 412.962 -35.5505 3.07874 412.962
881 1 -37.1089 3.04034 414.967 -37.1089 3.04034 414.967
885 1 -34.7971 3.76773 415.357 -34.7971 3.76773 415.357
859 1 -48.686 2.28212 416.433 -48.686 2.28212 416.433
596 1 -34.7483 2.42635 408.562 -34.7483 2.42635 408.562
879 1 -37.8882 0.807082 415.97 -37.8882 0.807082 415.97
1172 1 -34.0451 0.0292008 417.751 -34.0451 4.45665 417.751
1154 1 -44.8463 1.50431 418.208 -44.8463 1.50431 418.208
887 1 -34.0175 1.57308 414.354 -34.0175 1.57308 414.354
597 1 -33.9923 3.11614 410.957 -33.9923 3.11614 410.957
1161 1 -40.9782 2.27315 416.586 -40.9782 2.27315 416.586
1138 1 -54.8586 0.782224 417.673 -54.8586 0.782224 417.673
1149 1 -47.9345 2.96867 418.827 -47.9345 2.96867 418.827
41 1 -33.9263 3.31017 400.786 -33.9263 3.31017 400.786
888 1 -33.2378 3.80564 413.352 -33.2378 3.80564 413.352
1165 1 -38.6676 3.00107 416.974 -38.6676 3.00107 416.974
1141 1 -52.5511 1.51105 418.058 -52.5511 1.51105 418.058
1145 1 -50.243 2.23994 418.443 -50.243 2.23994 418.443
600 1 -33.1903 2.46179 406.56 -33.1903 2.46179 406.56
1148 1 -48.7135 0.733774 419.832 -48.7135 0.733774 419.832
882 1 -37.0841 0.157019 411.57 -37.0841 4.58447 411.57
1157 1 -43.3161 4.42583 419.598 -43.3161 4.42583 419.598
1144 1 -51.0218 4.4323 419.447 -51.0218 4.4323 419.447
602 1 -31.6539 0.956265 407.952 -31.6539 0.956265 407.952
1755 1 -31.0499 2.78555 427.326 -31.0499 2.78555 427.326
1460 1 -35.6368 2.8725 423.153 -35.6368 2.8725 423.153
2308 1 -44.2558 3.30517 437.591 -44.2558 3.30517 437.591
2316 1 -39.609 1.88892 434.963 -39.609 1.88892 434.963
2312 1 -41.9489 4.03676 437.976 -41.9489 4.03676 437.976
1464 1 -33.3263 3.60117 423.541 -33.3263 3.60117 423.541
1461 1 -34.856 0.678755 422.15 -34.856 0.678755 422.15
2039 1 -33.4314 3.3936 433.728 -33.4314 3.3936 433.728
2613 1 -35.0289 1.80458 439.132 -35.0289 1.80458 439.132
1467 1 -31.0155 4.32961 423.931 -31.0155 4.32961 423.931
2603 1 -40.4216 2.53264 439.365 -40.4216 2.53264 439.365
1443 1 -44.8753 4.38415 421.606 -44.8753 4.38415 421.606
1748 1 -34.8887 3.56118 425.546 -34.8887 3.56118 425.546
2023 1 -41.9164 1.15762 434.577 -41.9164 1.15762 434.577
2310 1 -42.7282 1.80086 438.98 -42.7282 1.80086 438.98
1151 1 -46.4047 1.46258 420.217 -46.4047 1.46258 420.217
2303 1 -47.3423 0.337851 438.211 -47.3423 0.337851 438.211
2299 1 -49.6499 4.03425 437.826 -49.6499 4.03425 437.826
2033 1 -36.5207 0.427938 434.345 -36.5207 0.427938 434.345
1433 1 -50.272 0.690906 421.841 -50.272 0.690906 421.841
1430 1 -51.831 0.647419 423.85 -51.831 0.647419 423.85
1426 1 -53.3905 0.603479 425.86 -53.3905 0.603479 425.86
1713 1 -54.9505 0.5593 427.869 -54.9505 0.5593 427.869
1710 1 -56.511 0.515112 429.878 -56.511 0.515112 429.878
2330 1 -31.16 2.57885 437.512 -31.16 2.57885 437.512
1160 1 -41.0064 0.726937 419.984 -41.0064 0.726937 419.984
1447 1 -42.5661 0.685689 421.992 -42.5661 0.685689 421.992
1444 1 -44.1261 0.643694 424 -44.1261 0.643694 424
1730 1 -45.6863 0.600997 426.008 -45.6863 0.600997 426.008
1727 1 -47.2466 0.557681 428.017 -47.2466 0.557681 428.017
1724 1 -48.8068 0.513884 430.026 -48.8068 0.513884 430.026
2008 1 -50.367 0.469785 432.035 -50.367 0.469785 432.035
2006 1 -51.9269 0.425586 434.044 -51.9269 0.425586 434.044
1458 1 -36.4177 0.638594 424.155 -36.4177 0.638594 424.155
1743 1 -37.9794 0.597645 426.162 -37.9794 0.597645 426.162
1740 1 -39.5411 0.555905 428.168 -39.5411 0.555905 428.168
2026 1 -41.1025 0.513398 430.176 -41.1025 0.513398 430.176
2022 1 -42.6634 0.470193 432.184 -42.6634 0.470193 432.184
2019 1 -44.2238 0.426413 434.192 -44.2238 0.426413 434.192
2309 1 -43.4762 1.1136 436.586 -43.4762 1.1136 436.586
1137 1 -54.8875 3.65975 421.072 -54.8875 3.65975 421.072
1421 1 -56.4462 3.61569 423.082 -56.4462 3.61569 423.082
1439 1 -47.1841 3.65517 421.221 -47.1841 3.65517 421.221
1435 1 -48.7433 3.61236 423.23 -48.7433 3.61236 423.23
1432 1 -50.3028 3.56894 425.239 -50.3028 3.56894 425.239
1719 1 -51.8626 3.52506 427.248 -51.8626 3.52506 427.248
1716 1 -53.4227 3.48093 429.258 -53.4227 3.48093 429.258
2001 1 -54.9831 3.43676 431.267 -54.9831 3.43676 431.267
1998 1 -56.5435 3.39276 433.276 -56.5435 3.39276 433.276
2323 1 -34.994 3.35145 435.734 -34.994 3.35145 435.734
1453 1 -39.4765 3.64891 421.374 -39.4765 3.64891 421.374
1450 1 -41.0369 3.60773 423.381 -41.0369 3.60773 423.381
1446 1 -42.5975 3.5658 425.389 -42.5975 3.5658 425.389
1732 1 -44.1582 3.52316 427.397 -44.1582 3.52316 427.397
1729 1 -45.7187 3.47988 429.406 -45.7187 3.47988 429.406
2014 1 -47.279 3.4361 431.414 -47.279 3.4361 431.414
2011 1 -48.8391 3.39199 433.424 -48.8391 3.39199 433.424
1745 1 -36.4511 3.52038 427.552 -36.4511 3.52038 427.552
1742 1 -38.0132 3.47876 429.558 -38.0132 3.47876 429.558
2028 1 -39.575 3.43634 431.565 -39.575 3.43634 431.565
2025 1 -41.1361 3.39318 433.573 -41.1361 3.39318 433.573
1427 1 -53.3592 2.15351 422.462 -53.3592 2.15351 422.462
1424 1 -54.9184 2.10951 424.471 -54.9184 2.10951 424.471
1711 1 -56.4782 2.06526 426.481 -56.4782 2.06526 426.481
2322 1 -35.7748 1.1163 436.738 -35.7748 1.1163 436.738
1750 1 -33.3601 2.05648 426.937 -33.3601 2.05648 426.937
1155 1 -44.0956 2.19135 420.602 -44.0956 2.19135 420.602
1441 1 -45.655 2.14931 422.61 -45.655 2.14931 422.61
1438 1 -47.2147 2.10655 424.619 -47.2147 2.10655 424.619
1725 1 -48.7746 2.06319 426.628 -48.7746 2.06319 426.628
1722 1 -50.3347 2.01936 428.637 -50.3347 2.01936 428.637
1718 1 -51.8949 1.97526 430.646 -51.8949 1.97526 430.646
2003 1 -53.455 1.93109 432.655 -53.455 1.93109 432.655
2000 1 -55.0151 1.88705 434.664 -55.0151 1.88705 434.664
1459 1 -36.386 2.18395 420.759 -36.386 2.18395 420.759
1455 1 -37.9469 2.14365 422.765 -37.9469 2.14365 422.765
1452 1 -39.508 2.10257 424.771 -39.508 2.10257 424.771
1737 1 -41.0692 2.06073 426.779 -41.0692 2.06073 426.779
1735 1 -42.6302 2.01815 428.786 -42.6302 2.01815 428.786
2020 1 -44.191 1.97491 430.795 -44.191 1.97491 430.795
2017 1 -45.7514 1.93113 432.803 -45.7514 1.93113 432.803
2034 1 -36.4857 1.97438 430.948 -36.4857 1.97438 430.948
2031 1 -38.0477 1.93205 432.955 -38.0477 1.93205 432.955
2029 1 -38.8285 4.1243 433.959 -38.8285 4.1243 433.959
1146 1 -49.4927 2.92615 420.836 -49.4927 2.92615 420.836
1431 1 -51.0514 2.88296 422.846 -51.0514 2.88296 422.846
1428 1 -52.6107 2.83922 424.855 -52.6107 2.83922 424.855
1715 1 -54.1705 2.79513 426.865 -54.1705 2.79513 426.865
1712 1 -55.7307 2.75092 428.874 -55.7307 2.75092 428.874
1747 1 -34.9231 2.01585 428.942 -34.9231 2.01585 428.942
1449 1 -41.7862 2.92014 420.988 -41.7862 2.92014 420.988
1445 1 -43.3461 2.87851 422.996 -43.3461 2.87851 422.996
1442 1 -44.9062 2.83616 425.004 -44.9062 2.83616 425.004
1728 1 -46.4665 2.79314 427.012 -46.4665 2.79314 427.012
1726 1 -48.0267 2.74956 429.021 -48.0267 2.74956 429.021
2010 1 -49.5869 2.70559 431.03 -49.5869 2.70559 431.03
2007 1 -51.147 2.66141 433.039 -51.147 2.66141 433.039
1456 1 -37.1985 2.83195 425.158 -37.1985 2.83195 425.158
1741 1 -38.7603 2.7906 427.165 -38.7603 2.7906 427.165
1738 1 -40.3218 2.74847 429.172 -40.3218 2.74847 429.172
2024 1 -41.883 2.7056 431.18 -41.883 2.7056 431.18
2021 1 -43.4437 2.66209 433.188 -43.4437 2.66209 433.188
2035 1 -35.7397 2.6629 433.341 -35.7397 2.6629 433.341
1754 1 -31.797 2.09628 424.933 -31.797 2.09628 424.933
1423 1 -55.6667 1.42404 422.077 -55.6667 1.42404 422.077
1420 1 -57.2259 1.37982 424.087 -57.2259 1.37982 424.087
2044 1 -30.3407 1.93073 433.114 -30.3407 1.93073 433.114
1437 1 -47.9636 1.42012 422.225 -47.9636 1.42012 422.225
1434 1 -49.523 1.37699 424.235 -49.523 1.37699 424.235
1721 1 -51.0827 1.33332 426.244 -51.0827 1.33332 426.244
1717 1 -52.6426 1.28928 428.253 -52.6426 1.28928 428.253
1714 1 -54.2029 1.24511 430.262 -54.2029 1.24511 430.262
1999 1 -55.7633 1.201 432.271 -55.7633 1.201 432.271
1164 1 -38.6964 1.45548 420.371 -38.6964 1.45548 420.371
1451 1 -40.2567 1.41469 422.378 -40.2567 1.41469 422.378
1448 1 -41.8172 1.37314 424.385 -41.8172 1.37314 424.385
1734 1 -43.3778 1.33084 426.393 -43.3778 1.33084 426.393
1731 1 -44.9384 1.28787 428.401 -44.9384 1.28787 428.401
2016 1 -46.4989 1.24432 430.41 -46.4989 1.24432 430.41
2012 1 -48.0591 1.20035 432.419 -48.0591 1.20035 432.419
2009 1 -49.6189 1.15614 434.428 -49.6189 1.15614 434.428
1746 1 -35.6699 1.32715 426.549 -35.6699 1.32715 426.549
1744 1 -37.2322 1.28595 428.555 -37.2322 1.28595 428.555
2030 1 -38.7942 1.24392 430.562 -38.7942 1.24392 430.562
2027 1 -40.3556 1.20112 432.569 -40.3556 1.20112 432.569
2325 1 -34.2128 1.15892 434.731 -34.2128 1.15892 434.731
1749 1 -34.1416 4.25 427.94 -34.1416 4.25 427.94
1425 1 -54.1387 4.34528 423.466 -54.1387 4.34528 423.466
1736 1 -41.8497 4.25325 427.782 -41.8497 4.25325 427.782
1142 1 -51.8008 2.19704 420.452 -51.8008 2.19704 420.452
1720 1 -51.1148 4.21106 429.642 -51.1148 4.21106 429.642
2005 1 -52.675 4.1669 431.651 -52.675 4.1669 431.651
2002 1 -54.2351 4.12277 433.66 -54.2351 4.12277 433.66
1169 1 -35.6056 4.41753 419.756 -35.6056 4.41753 419.756
1723 1 -49.5547 4.25505 427.632 -49.5547 4.25505 427.632
1440 1 -46.4348 4.34174 423.615 -46.4348 4.34174 423.615
1733 1 -43.4106 4.21033 429.79 -43.4106 4.21033 429.79
2018 1 -44.9712 4.1668 431.799 -44.9712 4.1668 431.799
2015 1 -46.5314 4.12281 433.808 -46.5314 4.12281 433.808
2036 1 -35.7044 4.20895 429.945 -35.7044 4.20895 429.945
2032 1 -37.2668 4.16704 431.951 -37.2668 4.16704 431.951
2326 1 -33.4675 1.84765 437.124 -33.4675 1.84765 437.124
1752 1 -32.5785 4.2902 425.935 -32.5785 4.2902 425.935
1457 1 -37.1664 4.37762 421.762 -37.1664 4.37762 421.762
2043 1 -31.0859 1.24127 430.721 -31.0859 1.24127 430.721
2286 1 -56.5751 1.84333 436.673 -56.5751 1.84333 436.673
2319 1 -37.3355 1.07281 438.746 -37.3355 1.07281 438.746
1436 1 -47.9946 4.29867 425.623 -47.9946 4.29867 425.623
1422 1 -55.6982 4.30113 425.476 -55.6982 4.30113 425.476
1173 1 -33.2945 0.718137 420.145 -33.2945 0.718137 420.145
2293 1 -52.7373 1.06785 438.447 -52.7373 1.06785 438.447
2289 1 -55.0459 0.337693 438.062 -55.0459 0.337693 438.062
2295 1 -51.2082 3.99009 439.836 -51.2082 3.99009 439.836
1465 1 -32.5452 1.40715 422.539 -32.5452 1.40715 422.539
2315 1 -39.6421 0.341031 438.361 -39.6421 0.341031 438.361
2331 1 -31.1228 4.12408 434.116 -31.1228 4.12408 434.116
2297 1 -50.4291 1.79841 438.831 -50.4291 1.79841 438.831
2324 1 -34.2484 4.03996 438.128 -34.2484 4.03996 438.128
2306 1 -45.0351 1.06923 438.595 -45.0351 1.06923 438.595
2285 1 -56.6048 0.294353 440.071 -56.6048 0.294353 440.071
1462 1 -34.1075 1.36754 424.544 -34.1075 1.36754 424.544
1751 1 -32.6136 2.74556 429.33 -32.6136 2.74556 429.33
2329 1 -31.9047 1.88972 435.119 -31.9047 1.88972 435.119
2042 1 -31.8679 3.43477 431.723 -31.8679 3.43477 431.723
2041 1 -32.6497 1.20058 432.726 -32.6497 1.20058 432.726
2593 1 -45.8142 3.26072 439.6 -45.8142 3.26072 439.6
2328 1 -31.9413 0.343988 438.515 -31.9413 0.343988 438.515
2301 1 -48.1214 2.52938 439.216 -48.1214 2.52938 439.216
1466 1 -31.7641 3.64039 421.537 -31.7641 3.64039 421.537
2298 1 -50.3987 3.34774 435.433 -50.3987 3.34774 435.433
2321 1 -36.5553 3.30838 437.742 -36.5553 3.30838 437.742
2313 1 -41.1692 1.84513 436.971 -41.1692 1.84513 436.971
2294 1 -51.9579 3.30357 437.442 -51.9579 3.30357 437.442
2304 1 -46.563 2.57378 437.206 -46.563 2.57378 437.206
2300 1 -48.8705 1.84267 436.822 -48.8705 1.84267 436.822
2290 1 -54.2663 2.57327 437.058 -54.2663 2.57327 437.058
2318 1 -38.082 0.384845 436.352 -38.082 0.384845 436.352
2327 1 -32.6863 4.08254 436.121 -32.6863 4.08254 436.121
2004 1 -52.7068 2.61724 435.049 -52.7068 2.61724 435.049
2013 1 -47.3112 1.88698 434.812 -47.3112 1.88698 434.812
2288 1 -55.7951 4.07887 435.669 -55.7951 4.07887 435.669
2037 1 -34.9584 0.470177 432.338 -34.9584 0.470177 432.338
1739 1 -40.2886 4.29547 425.775 -40.2886 4.29547 425.775
1753 1 -31.8318 0.551934 428.328 -31.8318 0.551934 428.328
2307 1 -45.0037 2.61809 435.197 -45.0037 2.61809 435.197
2314 1 -40.3892 4.08082 435.967 -40.3892 4.08082 435.967
2040 1 -33.3953 0.511504 430.333 -33.3953 0.511504 430.333
2320 1 -37.3015 2.62022 435.348 -37.3015 2.62022 435.348
2292 1 -53.4866 0.381492 436.053 -53.4866 0.381492 436.053
2311 1 -42.6964 3.34939 435.582 -42.6964 3.34939 435.582
2302 1 -48.0909 4.07856 435.817 -48.0909 4.07856 435.817
2296 1 -51.1783 1.1119 436.437 -51.1783 1.1119 436.437
1463 1 -34.0752 2.91227 421.148 -34.0752 2.91227 421.148
2287 1 -55.8254 2.52968 439.066 -55.8254 2.52968 439.066
2291 1 -53.5165 3.25967 439.451 -53.5165 3.25967 439.451
2317 1 -38.8622 2.57674 437.356 -38.8622 2.57674 437.356
2038 1 -34.1769 2.70468 431.335 -34.1769 2.70468 431.335
2305 1 -45.7835 0.38223 436.201 -45.7835 0.38223 436.201
2332 1 -30.3783 0.385978 436.509 -30.3783 0.385978 436.509
1468 1 -30.983 1.44598 420.536 -30.983 1.44598 420.536
1454 1 -38.7274 4.33694 423.768 -38.7274 4.33694 423.768
1429 1 -52.5799 4.38907 421.457 -52.5799 4.38907 421.457
1133 1 -57.1947 2.93048 420.688 -57.1947 2.93048 420.688
1175 1 -32.5139 2.95126 419.143 -32.5139 2.95126 419.143
2616 1 -32.7565 0.989062 442.916 -32.7565 0.989062 442.916
2901 1 -34.3142 0.944537 444.925 -34.3142 0.944537 444.925
2907 1 -31.2307 3.9129 444.306 -31.2307 3.9129 444.306
3194 1 -32.0386 0.127897 448.712 -32.0386 0.127897 448.712
2587 1 -48.9003 0.293501 440.22 -48.9003 0.293501 440.22
2597 1 -43.5073 3.99234 439.985 -43.5073 3.99234 439.985
2584 1 -50.4574 0.249404 442.23 -50.4574 0.249404 442.23
2581 1 -52.0138 0.205774 444.239 -52.0138 0.205774 444.239
2868 1 -53.5694 0.162805 446.248 -53.5694 0.162805 446.248
2865 1 -55.1244 0.120667 448.257 -55.1244 0.120667 448.257
2601 1 -41.2008 0.296702 440.37 -41.2008 0.296702 440.37
2598 1 -42.758 0.25212 442.38 -42.758 0.25212 442.38
2885 1 -44.3138 0.207568 444.39 -44.3138 0.207568 444.39
2882 1 -45.8683 0.163333 446.401 -45.8683 0.163333 446.401
2879 1 -47.4214 0.119686 448.411 -47.4214 0.119686 448.411
2612 1 -35.062 0.256887 442.53 -35.062 0.256887 442.53
2898 1 -36.6191 0.212235 444.54 -36.6191 0.212235 444.54
2895 1 -38.1741 0.167304 446.551 -38.1741 0.167304 446.551
3180 1 -39.727 0.122474 448.562 -39.727 0.122474 448.562
2576 1 -55.0747 3.21624 441.46 -55.0747 3.21624 441.46
2574 1 -56.6323 3.17342 443.468 -56.6323 3.17342 443.468
2589 1 -47.3715 3.2163 441.61 -47.3715 3.2163 441.61
2586 1 -48.9278 3.17212 443.62 -48.9278 3.17212 443.62
2874 1 -50.4831 3.12844 445.63 -50.4831 3.12844 445.63
2871 1 -52.0375 3.08544 447.639 -52.0375 3.08544 447.639
3155 1 -53.5913 3.04331 449.647 -53.5913 3.04331 449.647
2607 1 -38.1152 3.26452 439.75 -38.1152 3.26452 439.75
2604 1 -39.6735 3.22011 441.76 -39.6735 3.22011 441.76
2600 1 -41.23 3.17544 443.77 -41.23 3.17544 443.77
2887 1 -42.785 3.13081 445.781 -42.785 3.13081 445.781
2884 1 -44.3383 3.08655 447.792 -44.3383 3.08655 447.792
3168 1 -45.8903 3.04296 449.802 -45.8903 3.04296 449.802
2900 1 -35.0922 3.1358 445.93 -35.0922 3.1358 445.93
2897 1 -36.6462 3.09072 447.941 -36.6462 3.09072 447.941
2582 1 -51.987 1.75441 440.84 -51.987 1.75441 440.84
2579 1 -53.5443 1.71087 442.85 -53.5443 1.71087 442.85
2866 1 -55.101 1.66797 444.858 -55.101 1.66797 444.858
2578 1 -54.2957 1.02416 440.456 -54.2957 1.02416 440.456
2595 1 -44.2861 1.75635 440.99 -44.2861 1.75635 440.99
2592 1 -45.8427 1.71186 443 -45.8427 1.71186 443
2880 1 -47.398 1.66764 445.01 -47.398 1.66764 445.01
2877 1 -48.9523 1.62395 447.02 -48.9523 1.62395 447.02
2873 1 -50.5056 1.581 449.03 -50.5056 1.581 449.03
2609 1 -36.5885 1.76066 441.14 -36.5885 1.76066 441.14
2606 1 -38.1462 1.71615 443.15 -38.1462 1.71615 443.15
2892 1 -39.7021 1.67135 445.16 -39.7021 1.67135 445.16
2890 1 -41.256 1.62663 447.171 -41.256 1.62663 447.171
3174 1 -42.8082 1.58232 449.183 -42.8082 1.58232 449.183
2618 1 -31.9767 3.22475 441.912 -31.9767 3.22475 441.912
2585 1 -49.679 2.48513 441.225 -49.679 2.48513 441.225
2583 1 -51.2357 2.44124 443.235 -51.2357 2.44124 443.235
2870 1 -52.7916 2.39792 445.244 -52.7916 2.39792 445.244
2867 1 -54.3469 2.35535 447.253 -54.3469 2.35535 447.253
2863 1 -55.9017 2.31368 449.261 -55.9017 2.31368 449.261
2599 1 -41.9796 2.48815 441.375 -41.9796 2.48815 441.375
2596 1 -43.5361 2.44355 443.385 -43.5361 2.44355 443.385
2883 1 -45.0912 2.39912 445.395 -45.0912 2.39912 445.395
2881 1 -46.645 2.35515 447.406 -46.645 2.35515 447.406
3164 1 -48.1976 2.31189 449.416 -48.1976 2.31189 449.416
2610 1 -35.8408 2.44835 443.535 -35.8408 2.44835 443.535
2896 1 -37.3969 2.40351 445.545 -37.3969 2.40351 445.545
2893 1 -38.9508 2.35858 447.556 -38.9508 2.35858 447.556
3178 1 -40.5027 2.31394 449.568 -40.5027 2.31394 449.568
2575 1 -55.8536 0.981015 442.464 -55.8536 0.981015 442.464
2591 1 -46.593 1.02477 440.605 -46.593 1.02477 440.605
2588 1 -48.1498 0.980437 442.615 -48.1498 0.980437 442.615
2876 1 -49.7055 0.93648 444.625 -49.7055 0.93648 444.625
2872 1 -51.2604 0.893112 446.634 -51.2604 0.893112 446.634
2869 1 -52.8145 0.850528 448.643 -52.8145 0.850528 448.643
2605 1 -38.8945 1.02864 440.755 -38.8945 1.02864 440.755
2602 1 -40.452 0.984061 442.765 -40.452 0.984061 442.765
2889 1 -42.0077 0.93937 444.775 -42.0077 0.93937 444.775
2886 1 -43.5618 0.894889 446.786 -43.5618 0.894889 446.786
3170 1 -45.1145 0.850929 448.797 -45.1145 0.850929 448.797
2899 1 -35.8695 0.899538 446.936 -35.8695 0.899538 446.936
3184 1 -37.4223 0.854488 448.947 -37.4223 0.854488 448.947
2580 1 -52.7658 3.9463 441.845 -52.7658 3.9463 441.845
2577 1 -54.3227 3.90306 443.854 -54.3227 3.90306 443.854
2864 1 -55.8791 3.86054 445.862 -55.8791 3.86054 445.862
2862 1 -56.6571 1.62587 446.866 -56.6571 1.62587 446.866
2594 1 -45.0645 3.94781 441.995 -45.0645 3.94781 441.995
2590 1 -46.6205 3.90342 444.005 -46.6205 3.90342 444.005
2878 1 -48.1753 3.85944 446.015 -48.1753 3.85944 446.015
2875 1 -49.7291 3.81609 448.025 -49.7291 3.81609 448.025
3159 1 -51.2819 3.77359 450.034 -51.2819 3.77359 450.034
2611 1 -35.8089 3.99644 440.136 -35.8089 3.99644 440.136
2608 1 -37.3676 3.95219 442.145 -37.3676 3.95219 442.145
2894 1 -38.9244 3.90749 444.155 -38.9244 3.90749 444.155
2891 1 -40.4793 3.86269 446.166 -40.4793 3.86269 446.166
2888 1 -42.0323 3.81813 448.177 -42.0323 3.81813 448.177
2904 1 -32.7878 3.86817 446.316 -32.7878 3.86817 446.316
2621 1 -30.4155 3.26789 439.905 -30.4155 3.26789 439.905
2617 1 -32.7222 2.5363 439.518 -32.7222 2.5363 439.518
2614 1 -34.2826 2.49272 441.526 -34.2826 2.49272 441.526
2908 1 -30.4838 0.173178 446.701 -30.4838 0.173178 446.701
2619 1 -31.1964 1.03273 440.908 -31.1964 1.03273 440.908
2906 1 -31.2616 2.36432 447.706 -31.2616 2.36432 447.706
2905 1 -32.0096 1.6769 445.311 -32.0096 1.6769 445.311
2620 1 -30.4511 1.72121 443.302 -30.4511 1.72121 443.302
3190 1 -34.3421 3.82298 448.327 -34.3421 3.82298 448.327
2902 1 -33.5653 1.63188 447.321 -33.5653 1.63188 447.321
2903 1 -33.5357 3.18061 443.92 -33.5357 3.18061 443.92
2615 1 -33.5026 0.3009 440.522 -33.5026 0.3009 440.522
2909 1 -29.7052 2.4093 445.696 -29.7052 2.4093 445.696
14 1 -50.9772 0.434147 399.164 -50.9772 4.8616 399.164
7 1 -55.4601 3.38566 398.51 -55.4601 3.38566 398.51
25 1 -43.2173 0.433774 399.245 -43.2173 4.86123 399.245
38 1 -35.4438 0.360768 399.35 -35.4438 4.78822 399.35
23 1 -44.7616 0.379423 401.239 -44.7616 4.80688 401.239
287 1 -47.8525 0.296309 405.232 -47.8525 4.72376 405.232
878 1 -38.6415 0.118631 413.576 -38.6415 4.54608 413.576
579 1 -44.7972 0.170296 411.411 -44.7972 4.59775 411.411
585 1 -41.6889 0.247144 407.395 -41.6889 4.6746 407.395
290 1 -46.3083 0.337185 403.23 -46.3083 4.76464 403.23
11 1 -52.469 0.371321 401.109 -52.469 4.79877 401.109
595 1 -35.5269 0.19441 409.565 -35.5269 4.62186 409.565
1134 1 -57.1657 0.0536858 417.289 -57.1657 4.48114 417.289
283 1 -49.4004 0.257682 407.239 -49.4004 4.68513 407.239
582 1 -43.2428 0.209276 409.403 -43.2428 4.63673 409.403
276 1 -54.0208 0.351302 403.076 -54.0208 4.77875 403.076
569 1 -50.9502 0.219144 409.247 -50.9502 4.6466 409.247
847 1 -55.6099 0.096589 415.278 -55.6099 4.52404 415.278
272 1 -55.5557 0.315299 405.078 -55.5557 4.74275 405.078
35 1 -37.0158 0.347254 401.365 -37.0158 4.77471 401.365
598 1 -33.9693 0.230563 407.561 -33.9693 4.65802 407.561
850 1 -54.0551 0.138278 413.268 -54.0551 4.56573 413.268
304 1 -38.5786 0.319496 403.379 -38.5786 4.74695 403.379
301 1 -40.1347 0.283944 405.388 -40.1347 4.7114 405.388
314 1 -32.4105 0.265423 405.558 -32.4105 4.69288 405.558
864 1 -46.3521 0.130264 413.42 -46.3521 4.55772 413.42
566 1 -52.5016 0.178985 411.258 -52.5016 4.60644 411.258
1176 1 -32.4849 0.0674964 415.747 -32.4849 4.49495 415.747
85 1 -6.85108 1.15152 396.479 -6.85108 1.15152 396.479
58 1 -23.8242 1.09267 398.009 -23.8242 1.09267 398.009
45 1 -31.6246 1.16652 397.896 -31.6246 1.16652 397.896
49 1 -29.2442 1.83925 398.219 -29.2442 1.83925 398.219
72 1 -15.37 3.35484 397.27 -15.37 3.35484 397.27
80 1 -9.91984 2.57727 397.044 -9.91984 2.57727 397.044
75 1 -12.9921 4.02885 397.596 -12.9921 4.02885 397.596
83 1 -7.60369 3.35184 397.382 -7.60369 3.35184 397.382
52 1 -26.9421 2.62179 398.592 -26.9421 2.62179 398.592
61 1 -21.5228 1.87537 398.383 -21.5228 1.87537 398.383