ITEM: TIMESTEP
0
ITEM: NUMBER OF ATOMS
4630
ITEM: BOX BOUNDS xy xz yz pp pp pp
-6.1140988501799995e+01 1.0416002035000000e+02 0.0000000000000000e+00
0.0000000000000000e+00 4.4274527100805940e+00 0.0000000000000000e+00
3.8000000000000000e+02 5.0000000000000000e+02 0.0000000000000000e+00
ITEM: ATOMS id type x y z xu yu zu
27 1 -44.0748 2.4916 398.883 -44.0748 2.4916 398.883
36 1 -38.6015 1.74589 398.936 -38.6015 1.74589 398.936
31 1 -41.7051 3.17033 399.321 -41.7051 3.17033 399.321
22 1 -47.1905 3.9228 399.3 -47.1905 3.9228 399.3
20 1 -48.0117 1.70582 400.171 -48.0117 1.70582 400.171
40 1 -36.2348 2.42701 399.378 -36.2348 2.42701 399.378
34 1 -39.4027 3.9462 399.796 -39.4027 3.9462 399.796
17 1 -50.3199 0.946909 399.705 -50.3199 0.946909 399.705
9 1 -55.7458 1.62741 399.626 -55.7458 1.62741 399.626
43 1 -33.9349 3.20399 399.856 -33.9349 3.20399 399.856
12 1 -53.4775 2.46479 400.129 -53.4775 2.46479 400.129
5 1 -58.1081 0.990722 399.174 -58.1081 0.990722 399.174
29 1 -42.5424 0.943948 400.191 -42.5424 0.943948 400.191
853 1 -55.1046 2.95298 414.552 -55.1046 2.95298 414.552
873 1 -44.1911 1.47297 414.659 -44.1911 1.47297 414.659
865 1 -48.1752 0.713483 416.066 -48.1752 0.713483 416.066
1174 1 -35.7884 2.1603 417.639 -35.7884 2.1603 417.639
883 1 -38.7335 0.732305 414.715 -38.7335 0.732305 414.715
863 1 -49.6485 2.21358 414.605 -49.6485 2.21358 414.605
315 1 -34.1395 1.64939 403.199 -34.1395 1.64939 403.199
307 1 -38.9679 3.09355 405.554 -38.9679 3.09355 405.554
1150 1 -49.8487 0.682506 417.978 -49.8487 0.682506 417.978
855 1 -53.6315 1.45316 416.013 -53.6315 1.45316 416.013
310 1 -37.2921 3.12294 403.648 -37.2921 3.12294 403.648
871 1 -45.0281 3.67148 415.615 -45.0281 3.67148 415.615
16 1 -51.1476 3.1486 400.581 -51.1476 3.1486 400.581
309 1 -37.4928 1.59317 407.014 -37.4928 1.59317 407.014
1156 1 -46.7021 3.64083 417.527 -46.7021 3.64083 417.527
867 1 -47.3383 2.94259 415.11 -47.3383 2.94259 415.11
1159 1 -44.3922 4.36991 418.032 -44.3922 4.36991 418.032
1168 1 -38.9356 3.62978 418.088 -38.9356 3.62978 418.088
1170 1 -38.0983 1.43118 417.132 -38.0983 1.43118 417.132
594 1 -38.3304 3.79228 407.97 -38.3304 3.79228 407.97
37 1 -37.9243 2.41767 401.245 -37.9243 2.41767 401.245
851 1 -55.9412 0.723834 415.508 -55.9412 0.723834 415.508
857 1 -52.795 3.68242 415.057 -52.795 3.68242 415.057
592 1 -39.1678 1.56364 408.925 -39.1678 1.56364 408.925
849 1 -56.7777 2.92212 416.465 -56.7777 2.92212 416.465
877 1 -41.8809 2.20191 415.164 -41.8809 2.20191 415.164
1143 1 -54.4681 3.65135 416.969 -54.4681 3.65135 416.969
1140 1 -56.141 3.62018 418.882 -56.141 3.62018 418.882
845 1 -59.0874 2.19325 415.961 -59.0874 2.19325 415.961
875 1 -42.7181 4.40044 416.12 -42.7181 4.40044 416.12
886 1 -37.0587 0.762362 412.804 -37.0587 0.762362 412.804
891 1 -33.9106 3.7196 412.357 -33.9106 3.7196 412.357
39 1 -36.4586 0.920462 402.687 -36.4586 0.920462 402.687
1177 1 -34.3162 0.660728 419.101 -34.3162 0.660728 419.101
1167 1 -39.7728 1.40087 419.043 -39.7728 1.40087 419.043
8 1 -56.6081 3.89184 400.605 -56.6081 3.89184 400.605
869 1 -45.8651 1.44247 416.571 -45.8651 1.44247 416.571
1136 1 -58.4505 2.89105 418.378 -58.4505 2.89105 418.378
1162 1 -42.9196 2.87005 419.493 -42.9196 2.87005 419.493
15 1 -51.9945 0.935017 401.58 -51.9945 0.935017 401.58
280 1 -53.668 0.908343 403.483 -53.668 0.908343 403.483
277 1 -55.3464 0.889616 405.388 -55.3464 0.889616 405.388
273 1 -57.0162 0.858933 407.302 -57.0162 0.858933 407.302
560 1 -58.6883 0.828359 409.215 -58.6883 0.828359 409.215
557 1 -60.3614 0.798058 411.128 -60.3614 0.798058 411.128
26 1 -44.2251 0.935503 402.114 -44.2251 0.935503 402.114
294 1 -45.9028 0.909949 404.038 -45.9028 0.909949 404.038
291 1 -47.5766 0.877947 405.95 -47.5766 0.877947 405.95
576 1 -49.2495 0.846214 407.861 -49.2495 0.846214 407.861
573 1 -50.9227 0.816087 409.772 -50.9227 0.816087 409.772
570 1 -52.5954 0.785527 411.683 -52.5954 0.785527 411.683
854 1 -54.2681 0.754652 413.596 -54.2681 0.754652 413.596
305 1 -39.8045 0.865199 406.508 -39.8045 0.865199 406.508
589 1 -41.4789 0.835085 408.419 -41.4789 0.835085 408.419
586 1 -43.1531 0.804813 410.331 -43.1531 0.804813 410.331
872 1 -44.8273 0.774524 412.242 -44.8273 0.774524 412.242
599 1 -35.3836 0.792116 410.894 -35.3836 0.792116 410.894
1132 1 -60.7601 2.16217 417.874 -60.7601 2.16217 417.874
4 1 -58.3056 3.90326 402.452 -58.3056 3.90326 402.452
268 1 -59.9619 3.86159 404.383 -59.9619 3.86159 404.383
1152 1 -49.012 2.91175 417.022 -49.012 2.91175 417.022
19 1 -48.8599 3.89214 401.13 -48.8599 3.89214 401.13
286 1 -50.5254 3.8626 403.017 -50.5254 3.8626 403.017
282 1 -52.1945 3.83698 404.934 -52.1945 3.83698 404.934
279 1 -53.8698 3.81349 406.846 -53.8698 3.81349 406.846
565 1 -55.5418 3.78472 408.76 -55.5418 3.78472 408.76
563 1 -57.2144 3.75463 410.674 -57.2144 3.75463 410.674
846 1 -58.8877 3.72449 412.587 -58.8877 3.72449 412.587
32 1 -41.0802 3.89446 401.69 -41.0802 3.89446 401.69
300 1 -42.7557 3.8663 403.591 -42.7557 3.8663 403.591
297 1 -44.4288 3.836 405.5 -44.4288 3.836 405.5
293 1 -46.1018 3.80555 407.411 -46.1018 3.80555 407.411
578 1 -47.7752 3.77477 409.322 -47.7752 3.77477 409.322
575 1 -49.4488 3.74429 411.233 -49.4488 3.74429 411.233
860 1 -51.122 3.71349 413.145 -51.122 3.71349 413.145
591 1 -40.0052 3.76233 409.88 -40.0052 3.76233 409.88
588 1 -41.6796 3.73214 411.792 -41.6796 3.73214 411.792
874 1 -43.3539 3.70187 413.703 -43.3539 3.70187 413.703
10 1 -55.1443 2.39936 402.028 -55.1443 2.39936 402.028
274 1 -56.8263 2.39546 403.922 -56.8263 2.39546 403.922
271 1 -58.4903 2.36077 405.842 -58.4903 2.36077 405.842
558 1 -60.1621 2.32957 407.755 -60.1621 2.32957 407.755
24 1 -45.7236 2.44328 400.706 -45.7236 2.44328 400.706
21 1 -47.388 2.40931 402.584 -47.388 2.40931 402.584
288 1 -49.0526 2.3761 404.491 -49.0526 2.3761 404.491
285 1 -50.7232 2.3434 406.401 -50.7232 2.3434 406.401
571 1 -52.3965 2.31476 408.311 -52.3965 2.31476 408.311
568 1 -54.0687 2.28488 410.222 -54.0687 2.28488 410.222
852 1 -55.7412 2.25439 412.135 -55.7412 2.25439 412.135
848 1 -57.4143 2.22395 414.048 -57.4143 2.22395 414.048
306 1 -39.6048 2.39272 403.138 -39.6048 2.39272 403.138
302 1 -41.2797 2.36478 405.045 -41.2797 2.36478 405.045
299 1 -42.9532 2.3351 406.958 -42.9532 2.3351 406.958
583 1 -44.627 2.30502 408.87 -44.627 2.30502 408.87
581 1 -46.301 2.27468 410.782 -46.301 2.27468 410.782
866 1 -47.975 2.24431 412.693 -47.975 2.24431 412.693
880 1 -40.2064 2.23218 413.253 -40.2064 2.23218 413.253
312 1 -35.817 1.62199 405.104 -35.817 1.62199 405.104
2 1 -59.7977 1.00182 401.02 -59.7977 1.00182 401.02
13 1 -52.8232 3.13139 402.51 -52.8232 3.13139 402.51
278 1 -54.5067 3.11322 404.428 -54.5067 3.11322 404.428
275 1 -56.1806 3.08835 406.342 -56.1806 3.08835 406.342
562 1 -57.8516 3.05717 408.258 -57.8516 3.05717 408.258
559 1 -59.5247 3.02695 410.171 -59.5247 3.02695 410.171
1166 1 -40.61 3.59936 419.999 -40.61 3.59936 419.999
889 1 -34.7483 1.4911 413.311 -34.7483 1.4911 413.311
28 1 -43.3919 3.16272 401.189 -43.3919 3.16272 401.189
296 1 -45.0686 3.13702 403.085 -45.0686 3.13702 403.085
292 1 -46.7408 3.10784 404.995 -46.7408 3.10784 404.995
289 1 -48.4129 3.07582 406.906 -48.4129 3.07582 406.906
574 1 -50.0861 3.04495 408.817 -50.0861 3.04495 408.817
572 1 -51.7591 3.01468 410.728 -51.7591 3.01468 410.728
856 1 -53.4317 2.98383 412.64 -53.4317 2.98383 412.64
303 1 -40.6421 3.06375 407.463 -40.6421 3.06375 407.463
587 1 -42.3161 3.03362 409.375 -42.3161 3.03362 409.375
584 1 -43.9902 3.00338 411.286 -43.9902 3.00338 411.286
870 1 -45.6644 2.97308 413.198 -45.6644 2.97308 413.198
6 1 -57.4653 1.69809 401.496 -57.4653 1.69809 401.496
270 1 -59.1291 1.6659 403.419 -59.1291 1.6659 403.419
267 1 -60.7979 1.63167 405.338 -60.7979 1.63167 405.338
890 1 -34.1133 2.19018 415.729 -34.1133 2.19018 415.729
18 1 -49.6866 1.66458 402.074 -49.6866 1.66458 402.074
284 1 -51.3571 1.63737 403.983 -51.3571 1.63737 403.983
281 1 -53.0328 1.61249 405.893 -53.0328 1.61249 405.893
567 1 -54.7062 1.58606 407.804 -54.7062 1.58606 407.804
564 1 -56.3781 1.55596 409.718 -56.3781 1.55596 409.718
561 1 -58.0511 1.52589 411.631 -58.0511 1.52589 411.631
844 1 -59.7243 1.49554 413.544 -59.7243 1.49554 413.544
33 1 -40.2568 1.69653 400.755 -40.2568 1.69653 400.755
30 1 -41.9246 1.66378 402.628 -41.9246 1.66378 402.628
298 1 -43.5925 1.63676 404.541 -43.5925 1.63676 404.541
295 1 -45.2651 1.60712 406.454 -45.2651 1.60712 406.454
580 1 -46.9384 1.57632 408.366 -46.9384 1.57632 408.366
577 1 -48.6121 1.54575 410.277 -48.6121 1.54575 410.277
862 1 -50.2855 1.5152 412.189 -50.2855 1.5152 412.189
590 1 -40.8423 1.53355 410.836 -40.8423 1.53355 410.836
876 1 -42.5167 1.5033 412.747 -42.5167 1.5033 412.747
1163 1 -42.0825 0.671624 418.537 -42.0825 0.671624 418.537
1153 1 -48.3757 3.60989 419.439 -48.3757 3.60989 419.439
311 1 -36.6543 3.82174 406.06 -36.6543 3.82174 406.06
42 1 -34.7881 0.954112 400.816 -34.7881 0.954112 400.816
1135 1 -59.2869 0.66168 419.334 -59.2869 0.66168 419.334
1171 1 -37.4633 2.13016 419.55 -37.4633 2.13016 419.55
1139 1 -56.9774 1.3908 419.838 -56.9774 1.3908 419.838
601 1 -34.5458 3.02054 409.939 -34.5458 3.02054 409.939
313 1 -34.9755 3.85105 404.149 -34.9755 3.85105 404.149
858 1 -51.9585 1.48423 414.101 -51.9585 1.48423 414.101
868 1 -46.5014 0.744154 414.154 -46.5014 0.744154 414.154
1147 1 -52.1584 4.38069 417.474 -52.1584 4.38069 417.474
843 1 -60.5608 3.6939 414.5 -60.5608 3.6939 414.5
593 1 -38.5318 2.26232 411.342 -38.5318 2.26232 411.342
308 1 -38.1298 0.894034 404.597 -38.1298 0.894034 404.597
861 1 -50.4852 4.41181 415.561 -50.4852 4.41181 415.561
1158 1 -45.2292 2.14082 418.988 -45.2292 2.14082 418.988
884 1 -37.8962 2.96109 413.759 -37.8962 2.96109 413.759
881 1 -39.5709 2.93093 415.67 -39.5709 2.93093 415.67
885 1 -37.2609 3.65998 416.177 -37.2609 3.65998 416.177
859 1 -51.3218 2.18254 416.517 -51.3218 2.18254 416.517
596 1 -36.8569 2.29215 409.432 -36.8569 2.29215 409.432
879 1 -40.4081 0.702057 416.626 -40.4081 0.702057 416.626
1172 1 -36.6259 4.35899 418.594 -36.6259 4.35899 418.594
1154 1 -47.5389 1.41167 418.483 -47.5389 1.41167 418.483
887 1 -36.4234 1.46127 415.222 -36.4234 1.46127 415.222
597 1 -36.2212 2.99101 411.849 -36.2212 2.99101 411.849
1161 1 -43.5552 2.17148 417.076 -43.5552 2.17148 417.076
1138 1 -57.6141 0.692893 417.421 -57.6141 0.692893 417.421
1149 1 -50.6853 2.88066 418.934 -50.6853 2.88066 418.934
41 1 -35.6136 3.15095 401.749 -35.6136 3.15095 401.749
888 1 -35.5859 3.68995 414.266 -35.5859 3.68995 414.266
1165 1 -41.2453 2.90059 417.581 -41.2453 2.90059 417.581
1141 1 -55.3046 1.42205 417.925 -55.3046 1.42205 417.925
1145 1 -52.995 2.15137 418.43 -52.995 2.15137 418.43
600 1 -35.1815 2.32148 407.522 -35.1815 2.32148 407.522
1148 1 -51.522 0.651329 419.891 -51.522 0.651329 419.891
882 1 -39.3691 0.0335437 412.298 -39.3691 4.461 412.298
1157 1 -46.0661 4.33912 419.944 -46.0661 4.33912 419.944
1144 1 -53.8315 4.34947 419.386 -53.8315 4.34947 419.386
602 1 -33.7078 0.821406 408.984 -33.7078 0.821406 408.984
1131 1 -60.9593 0.630155 421.247 -60.9593 0.630155 421.247
1755 1 -34.0877 2.72852 428.264 -34.0877 2.72852 428.264
1460 1 -38.5028 2.79874 423.878 -38.5028 2.79874 423.878
2308 1 -47.9019 3.30836 437.771 -47.9019 3.30836 437.771
2316 1 -43.0875 1.87309 435.406 -43.0875 1.87309 435.406
2312 1 -45.5942 4.03886 438.276 -45.5942 4.03886 438.276
1464 1 -36.1938 3.5284 424.384 -36.1938 3.5284 424.384
1461 1 -37.6657 0.600301 422.922 -37.6657 0.600301 422.922
2039 1 -36.8 3.36569 434.505 -36.8 3.36569 434.505
2613 1 -38.6721 1.80327 439.792 -38.6721 1.80327 439.792
1467 1 -33.8847 4.25806 424.891 -33.8847 4.25806 424.891
2603 1 -44.1219 2.53969 439.738 -44.1219 2.53969 439.738
1443 1 -47.7396 4.30807 421.856 -47.7396 4.30807 421.856
1748 1 -37.868 3.49778 426.295 -37.868 3.49778 426.295
2023 1 -45.3953 1.14268 434.9 -45.3953 1.14268 434.9
2310 1 -46.4294 1.8091 439.232 -46.4294 1.8091 439.232
1151 1 -49.2124 1.38061 420.395 -49.2124 1.38061 420.395
2303 1 -51.0451 0.348149 438.223 -51.0451 0.348149 438.223
2299 1 -53.3532 4.0453 437.718 -53.3532 4.0453 437.718
2033 1 -39.9439 0.40571 434.955 -39.9439 0.40571 434.955
1433 1 -53.1949 0.619974 421.803 -53.1949 0.619974 421.803
1430 1 -54.8676 0.588421 423.716 -54.8676 0.588421 423.716
1426 1 -56.5399 0.556662 425.629 -56.5399 0.556662 425.629
1713 1 -58.2118 0.524715 427.543 -58.2118 0.524715 427.543
1710 1 -59.8835 0.49262 429.456 -59.8835 0.49262 429.456
2330 1 -34.6935 2.56577 438.385 -34.6935 2.56577 438.385
1160 1 -43.7566 0.640956 420.449 -43.7566 0.640956 420.449
1447 1 -45.4303 0.610028 422.361 -45.4303 0.610028 422.361
1444 1 -47.1036 0.578848 424.273 -47.1036 0.578848 424.273
1730 1 -48.7766 0.547428 426.186 -48.7766 0.547428 426.186
1727 1 -50.4491 0.515781 428.099 -50.4491 0.515781 428.099
1724 1 -52.1211 0.483929 430.012 -52.1211 0.483929 430.012
2008 1 -53.7928 0.451907 431.925 -53.7928 0.451907 431.925
2006 1 -55.464 0.419767 433.839 -55.464 0.419767 433.839
1458 1 -39.3399 0.569655 424.833 -39.3399 0.569655 424.833
1743 1 -41.0136 0.538713 426.745 -41.0136 0.538713 426.745
1740 1 -42.6868 0.507484 428.657 -42.6868 0.507484 428.657
2026 1 -44.3596 0.475993 430.57 -44.3596 0.475993 430.57
2022 1 -46.0317 0.44427 432.482 -46.0317 0.44427 432.482
2019 1 -47.7033 0.412355 434.395 -47.7033 0.412355 434.395
2309 1 -47.0665 1.11068 436.814 -47.0665 1.11068 436.814
1137 1 -57.8137 3.58881 420.795 -57.8137 3.58881 420.795
1421 1 -59.4861 3.5572 422.708 -59.4861 3.5572 422.708
1439 1 -50.049 3.57873 421.351 -50.049 3.57873 421.351
1435 1 -51.722 3.54735 423.264 -51.722 3.54735 423.264
1432 1 -53.3947 3.51576 425.177 -53.3947 3.51576 425.177
1719 1 -55.0669 3.48396 427.09 -55.0669 3.48396 427.09
1716 1 -56.7387 3.45198 429.003 -56.7387 3.45198 429.003
2001 1 -58.4103 3.41987 430.917 -58.4103 3.41987 430.917
1998 1 -60.0815 3.38767 432.831 -60.0815 3.38767 432.831
2323 1 -38.4722 3.33411 436.417 -38.4722 3.33411 436.417
1453 1 -42.2841 3.56869 421.91 -42.2841 3.56869 421.91
1450 1 -43.9579 3.53775 423.822 -43.9579 3.53775 423.822
1446 1 -45.6312 3.50655 425.734 -45.6312 3.50655 425.734
1732 1 -47.3041 3.47511 427.647 -47.3041 3.47511 427.647
1729 1 -48.9765 3.44343 429.56 -48.9765 3.44343 429.56
2014 1 -50.6484 3.41156 431.473 -50.6484 3.41156 431.473
2011 1 -52.3199 3.37952 433.386 -52.3199 3.37952 433.386
1745 1 -39.5417 3.46684 428.207 -39.5417 3.46684 428.207
1742 1 -41.2149 3.4356 430.119 -41.2149 3.4356 430.119
2028 1 -42.8875 3.40409 432.031 -42.8875 3.40409 432.031
2025 1 -44.5595 3.37235 433.944 -44.5595 3.37235 433.944
1427 1 -56.3406 2.08859 422.255 -56.3406 2.08859 422.255
1424 1 -58.013 2.05689 424.169 -58.013 2.05689 424.169
1711 1 -59.685 2.02499 426.082 -59.685 2.02499 426.082
2322 1 -39.3081 1.1045 437.373 -39.3081 1.1045 437.373
1750 1 -36.3963 1.99857 427.757 -36.3963 1.99857 427.757
1155 1 -46.9029 2.1099 420.9 -46.9029 2.1099 420.9
1441 1 -48.5762 2.07873 422.812 -48.5762 2.07873 422.812
1438 1 -50.2492 2.04733 424.725 -50.2492 2.04733 424.725
1725 1 -51.9218 2.01571 426.638 -51.9218 2.01571 426.638
1722 1 -53.594 1.98389 428.551 -53.594 1.98389 428.551
1718 1 -55.2657 1.95189 430.464 -55.2657 1.95189 430.464
2003 1 -56.9371 1.91976 432.378 -56.9371 1.91976 432.378
2000 1 -58.6082 1.88756 434.292 -58.6082 1.88756 434.292
1459 1 -39.1378 2.09977 421.46 -39.1378 2.09977 421.46
1455 1 -40.8119 2.06911 423.372 -40.8119 2.06911 423.372
1452 1 -42.4857 2.03816 425.283 -42.4857 2.03816 425.283
1737 1 -44.1589 2.00695 427.196 -44.1589 2.00695 427.196
1735 1 -45.8317 1.97548 429.108 -45.8317 1.97548 429.108
2020 1 -47.504 1.94378 431.021 -47.504 1.94378 431.021
2017 1 -49.1758 1.91188 432.934 -49.1758 1.91188 432.934
2034 1 -39.7431 1.93638 431.581 -39.7431 1.93638 431.581
2031 1 -41.4156 1.90485 433.493 -41.4156 1.90485 433.493
2029 1 -42.2516 4.10272 434.449 -42.2516 4.10272 434.449
1146 1 -52.3585 2.8494 420.847 -52.3585 2.8494 420.847
1431 1 -54.0313 2.81795 422.76 -54.0313 2.81795 422.76
1428 1 -55.7038 2.78629 424.673 -55.7038 2.78629 424.673
1715 1 -57.3759 2.75444 426.586 -57.3759 2.75444 426.586
1712 1 -59.0477 2.72241 428.5 -59.0477 2.72241 428.5
1708 1 -60.7192 2.69026 430.413 -60.7192 2.69026 430.413
1747 1 -38.07 1.96763 429.669 -38.07 1.96763 429.669
1449 1 -44.5935 2.83925 421.405 -44.5935 2.83925 421.405
1445 1 -46.267 2.80819 423.317 -46.267 2.80819 423.317
1442 1 -47.9402 2.77689 425.229 -47.9402 2.77689 425.229
1728 1 -49.6129 2.74536 427.142 -49.6129 2.74536 427.142
1726 1 -51.2852 2.7136 429.055 -51.2852 2.7136 429.055
2010 1 -52.957 2.68166 430.968 -52.957 2.68166 430.968
2007 1 -54.6284 2.64957 432.882 -54.6284 2.64957 432.882
1456 1 -40.1768 2.76795 425.789 -40.1768 2.76795 425.789
1741 1 -41.8503 2.73686 427.701 -41.8503 2.73686 427.701
1738 1 -43.5233 2.7055 429.613 -43.5233 2.7055 429.613
2024 1 -45.1957 2.67388 431.526 -45.1957 2.67388 431.526
2021 1 -46.8676 2.64206 433.439 -46.8676 2.64206 433.439
2035 1 -39.1078 2.63525 433.999 -39.1078 2.63525 433.999
1754 1 -34.722 2.02916 425.847 -34.722 2.02916 425.847
1423 1 -58.6499 1.35931 421.751 -58.6499 1.35931 421.751
1420 1 -60.3221 1.32757 423.665 -60.3221 1.32757 423.665
2044 1 -33.6558 1.89805 434.055 -33.6558 1.89805 434.055
1437 1 -50.8856 1.34934 422.308 -50.8856 1.34934 422.308
1434 1 -52.5584 1.31785 424.22 -52.5584 1.31785 424.22
1721 1 -54.2308 1.28615 426.133 -54.2308 1.28615 426.133
1717 1 -55.9029 1.25426 428.047 -55.9029 1.25426 428.047
1714 1 -57.5745 1.22221 429.96 -57.5745 1.22221 429.96
1999 1 -59.2459 1.19005 431.874 -59.2459 1.19005 431.874
1997 1 -60.917 1.15784 433.788 -60.917 1.15784 433.788
1164 1 -41.4471 1.37033 420.954 -41.4471 1.37033 420.954
1451 1 -43.1211 1.33953 422.866 -43.1211 1.33953 422.866
1448 1 -44.7946 1.30846 424.778 -44.7946 1.30846 424.778
1734 1 -46.4677 1.27713 426.69 -46.4677 1.27713 426.69
1731 1 -48.1403 1.24557 428.603 -48.1403 1.24557 428.603
2016 1 -49.8125 1.21379 430.516 -49.8125 1.21379 430.516
2012 1 -51.4842 1.18183 432.43 -51.4842 1.18183 432.43
2009 1 -53.1555 1.14973 434.343 -53.1555 1.14973 434.343
1746 1 -38.7049 1.26862 427.251 -38.7049 1.26862 427.251
1744 1 -40.3784 1.23753 429.163 -40.3784 1.23753 429.163
2030 1 -42.0513 1.20615 431.075 -42.0513 1.20615 431.075
2027 1 -43.7236 1.17452 432.988 -43.7236 1.17452 432.988
2325 1 -37.6362 1.1362 435.461 -37.6362 1.1362 435.461
1749 1 -37.2332 4.19687 428.713 -37.2332 4.19687 428.713
1425 1 -57.1768 4.28649 423.212 -57.1768 4.28649 423.212
1736 1 -44.9954 4.20497 428.152 -44.9954 4.20497 428.152
1142 1 -54.668 2.12007 420.342 -54.668 2.12007 420.342
1720 1 -54.4299 4.18163 429.508 -54.4299 4.18163 429.508
2005 1 -56.1015 4.14956 431.421 -56.1015 4.14956 431.421
2002 1 -57.7727 4.11739 433.335 -57.7727 4.11739 433.335
1169 1 -38.3006 4.32872 420.505 -38.3006 4.32872 420.505
1723 1 -52.7579 4.21355 427.594 -52.7579 4.21355 427.594
1440 1 -49.4128 4.27679 423.768 -49.4128 4.27679 423.768
1733 1 -46.6679 4.17338 430.064 -46.6679 4.17338 430.064
2018 1 -48.34 4.14158 431.977 -48.34 4.14158 431.977
2015 1 -50.0115 4.1096 433.891 -50.0115 4.1096 433.891
2036 1 -38.9066 4.16577 430.625 -38.9066 4.16577 430.625
2032 1 -40.5795 4.13438 432.537 -40.5795 4.13438 432.537
2326 1 -37.0007 1.83512 437.879 -37.0007 1.83512 437.879
1752 1 -35.5592 4.22763 426.802 -35.5592 4.22763 426.802
1457 1 -39.9749 4.2982 422.416 -39.9749 4.2982 422.416
2043 1 -34.2903 1.19876 431.637 -34.2903 1.19876 431.637
2286 1 -60.279 1.85535 436.206 -60.279 1.85535 436.206
2319 1 -40.9793 1.0726 439.286 -40.9793 1.0726 439.286
1436 1 -51.0856 4.24528 425.681 -51.0856 4.24528 425.681
1422 1 -58.849 4.25469 425.125 -58.849 4.25469 425.125
1173 1 -35.9911 0.630656 421.012 -35.9911 0.630656 421.012
2293 1 -56.4968 1.08533 438.171 -56.4968 1.08533 438.171
2289 1 -58.8055 0.355359 437.667 -58.8055 0.355359 437.667
2295 1 -55.0235 4.0131 439.632 -55.0235 4.0131 439.632
1465 1 -35.3565 1.32987 423.429 -35.3565 1.32987 423.429
2315 1 -43.2866 0.341974 438.781 -43.2866 0.341974 438.781
2331 1 -34.4923 4.09617 435.011 -34.4923 4.09617 435.011
2297 1 -54.1884 1.81548 438.675 -54.1884 1.81548 438.675
2324 1 -37.8365 4.03294 438.836 -37.8365 4.03294 438.836
2306 1 -48.7372 1.07858 438.727 -48.7372 1.07858 438.727
2285 1 -60.4758 0.323218 439.581 -60.4758 0.323218 439.581
1462 1 -37.0309 1.2994 425.34 -37.0309 1.2994 425.34
1751 1 -35.7617 2.69776 430.175 -35.7617 2.69776 430.175
2329 1 -35.3286 1.86674 435.967 -35.3286 1.86674 435.967
2042 1 -35.127 3.39697 432.593 -35.127 3.39697 432.593
2041 1 -35.9636 1.16765 433.549 -35.9636 1.16765 433.549
2593 1 -49.5723 3.27623 439.684 -49.5723 3.27623 439.684
2328 1 -35.5294 0.336177 439.342 -35.5294 0.336177 439.342
2301 1 -51.8802 2.54579 439.179 -51.8802 2.54579 439.179
1466 1 -34.5191 3.55871 422.474 -34.5191 3.55871 422.474
2298 1 -53.9909 3.34737 435.3 -53.9909 3.34737 435.3
2321 1 -40.1438 3.30229 438.33 -40.1438 3.30229 438.33
2313 1 -44.7588 1.84115 437.319 -44.7588 1.84115 437.319
2294 1 -55.6616 3.31516 437.214 -55.6616 3.31516 437.214
2304 1 -50.2098 2.57796 437.266 -50.2098 2.57796 437.266
2300 1 -52.518 1.84768 436.761 -52.518 1.84768 436.761
2290 1 -57.9702 2.58518 436.71 -57.9702 2.58518 436.71
2318 1 -41.6156 0.373924 436.868 -41.6156 0.373924 436.868
2327 1 -36.1648 4.06469 436.923 -36.1648 4.06469 436.923
2004 1 -56.2995 2.6174 434.796 -56.2995 2.6174 434.796
2013 1 -50.8471 1.87983 434.847 -50.8471 1.87983 434.847
2288 1 -59.4436 4.08518 435.249 -59.4436 4.08518 435.249
2037 1 -38.2715 0.437265 433.043 -38.2715 0.437265 433.043
1739 1 -43.3224 4.23632 426.239 -43.3224 4.23632 426.239
1753 1 -34.9247 0.499459 429.22 -34.9247 0.499459 429.22
2307 1 -48.539 2.61007 435.352 -48.539 2.61007 435.352
2314 1 -43.9232 4.07086 436.362 -43.9232 4.07086 436.362
2040 1 -36.5984 0.46853 431.131 -36.5984 0.46853 431.131
2320 1 -40.7798 2.60357 435.911 -40.7798 2.60357 435.911
2292 1 -57.1349 0.387563 435.753 -57.1349 0.387563 435.753
2311 1 -46.231 3.34042 435.857 -46.231 3.34042 435.857
2302 1 -51.6826 4.07749 435.804 -51.6826 4.07749 435.804
2296 1 -54.8263 1.11754 436.257 -54.8263 1.11754 436.257
1463 1 -36.8284 2.82924 421.967 -36.8284 2.82924 421.967
2287 1 -59.6407 2.553 438.624 -59.6407 2.553 438.624
2291 1 -57.332 3.28296 439.128 -57.332 3.28296 439.128
2317 1 -42.4512 2.57169 437.824 -42.4512 2.57169 437.824
2038 1 -37.435 2.66666 432.087 -37.435 2.66666 432.087
2305 1 -49.3744 0.380297 436.309 -49.3744 0.380297 436.309
2332 1 -33.8574 0.367851 437.429 -33.8574 0.367851 437.429
1709 1 -60.5209 4.22269 427.039 -60.5209 4.22269 427.039
1468 1 -33.6817 1.36002 421.519 -33.6817 1.36002 421.519
1454 1 -41.6488 4.26739 424.328 -41.6488 4.26739 424.328
1429 1 -55.5043 4.31808 421.299 -55.5043 4.31808 421.299
1133 1 -60.1231 2.85968 420.291 -60.1231 2.85968 420.291
1175 1 -35.1537 2.85945 420.056 -35.1537 2.85945 420.056
2616 1 -36.5641 1.00303 443.673 -36.5641 1.00303 443.673
2901 1 -38.2338 0.970972 445.587 -38.2338 0.970972 445.587
2907 1 -35.0925 3.9315 445.136 -35.0925 3.9315 445.136
3194 1 -36.1243 0.170622 449.469 -36.1243 0.170622 449.469
2587 1 -52.7153 0.315966 440.136 -52.7153 0.315966 440.136
2597 1 -47.2646 4.00677 440.189 -47.2646 4.00677 440.189
2584 1 -54.3851 0.283804 442.05 -54.3851 0.283804 442.05
2581 1 -56.0546 0.251723 443.964 -56.0546 0.251723 443.964
2868 1 -57.7238 0.219789 445.878 -57.7238 0.219789 445.878
2865 1 -59.3928 0.188071 447.791 -59.3928 0.188071 447.791
2601 1 -44.9571 0.309929 440.694 -44.9571 0.309929 440.694
2598 1 -46.627 0.277854 442.608 -46.627 0.277854 442.608
2885 1 -48.2964 0.245807 444.522 -48.2964 0.245807 444.522
2882 1 -49.9653 0.213846 446.436 -49.9653 0.213846 446.436
2879 1 -51.6338 0.182032 448.35 -51.6338 0.182032 448.35
2612 1 -38.8708 0.272269 443.168 -38.8708 0.272269 443.168
2898 1 -40.5405 0.240229 445.081 -40.5405 0.240229 445.081
2895 1 -42.2095 0.208233 446.995 -42.2095 0.208233 446.995
3180 1 -43.8779 0.176332 448.909 -43.8779 0.176332 448.909
2576 1 -59.0021 3.25084 441.041 -59.0021 3.25084 441.041
2574 1 -60.672 3.21885 442.955 -60.672 3.21885 442.955
2589 1 -51.2422 3.24408 441.598 -51.2422 3.24408 441.598
2586 1 -52.9118 3.21197 443.512 -52.9118 3.21197 443.512
2874 1 -54.5809 3.17995 445.426 -54.5809 3.17995 445.426
2871 1 -56.2498 3.14808 447.339 -56.2498 3.14808 447.339
3155 1 -57.9184 3.11643 449.253 -57.9184 3.11643 449.253
2607 1 -41.8146 3.27033 440.243 -41.8146 3.27033 440.243
2604 1 -43.4848 3.23828 442.156 -43.4848 3.23828 442.156
2600 1 -45.1544 3.20624 444.07 -45.1544 3.20624 444.07
2887 1 -46.8235 3.17424 445.984 -46.8235 3.17424 445.984
2884 1 -48.4921 3.14235 447.898 -48.4921 3.14235 447.898
3168 1 -50.1603 3.11064 449.812 -50.1603 3.11064 449.812
2900 1 -39.0684 3.16868 446.544 -39.0684 3.16868 446.544
2897 1 -40.7371 3.13673 448.458 -40.7371 3.13673 448.458
2582 1 -55.8585 1.78329 440.589 -55.8585 1.78329 440.589
2579 1 -57.5283 1.75117 442.503 -57.5283 1.75117 442.503
2866 1 -59.1979 1.71921 444.416 -59.1979 1.71921 444.416
2578 1 -58.1671 1.05316 440.085 -58.1671 1.05316 440.085
2595 1 -48.0996 1.77699 441.146 -48.0996 1.77699 441.146
2592 1 -49.7693 1.74489 443.06 -49.7693 1.74489 443.06
2880 1 -51.4385 1.71285 444.974 -51.4385 1.71285 444.974
2877 1 -53.1073 1.68092 446.888 -53.1073 1.68092 446.888
2873 1 -54.7758 1.64917 448.801 -54.7758 1.64917 448.801
2609 1 -40.3427 1.77128 441.705 -40.3427 1.77128 441.705
2606 1 -42.0126 1.73924 443.619 -42.0126 1.73924 443.619
2892 1 -43.6819 1.70721 445.533 -43.6819 1.70721 445.533
2890 1 -45.3507 1.67526 447.447 -45.3507 1.67526 447.447
3174 1 -47.019 1.64343 449.361 -47.019 1.64343 449.361
2618 1 -35.729 3.23277 442.717 -35.729 3.23277 442.717
2585 1 -53.5502 2.5136 441.093 -53.5502 2.5136 441.093
2583 1 -55.2199 2.48148 443.007 -55.2199 2.48148 443.007
2870 1 -56.8892 2.44946 444.921 -56.8892 2.44946 444.921
2867 1 -58.5583 2.41762 446.835 -58.5583 2.41762 446.835
2863 1 -60.2273 2.38604 448.748 -60.2273 2.38604 448.748
2599 1 -45.7921 2.50762 441.651 -45.7921 2.50762 441.651
2596 1 -47.4617 2.47555 443.565 -47.4617 2.47555 443.565
2883 1 -49.1309 2.44354 445.479 -49.1309 2.44354 445.479
2881 1 -50.7996 2.41164 447.393 -50.7996 2.41164 447.393
3164 1 -52.4679 2.37993 449.307 -52.4679 2.37993 449.307
2610 1 -39.7057 2.46997 444.124 -39.7057 2.46997 444.124
2896 1 -41.3751 2.43795 446.038 -41.3751 2.43795 446.038
2893 1 -43.0438 2.406 447.952 -43.0438 2.406 447.952
3178 1 -44.7119 2.37415 449.866 -44.7119 2.37415 449.866
2575 1 -59.837 1.02109 441.998 -59.837 1.02109 441.998
2591 1 -50.4073 1.04643 440.641 -50.4073 1.04643 440.641
2588 1 -52.077 1.01429 442.555 -52.077 1.01429 442.555
2876 1 -53.7464 0.982216 444.469 -53.7464 0.982216 444.469
2872 1 -55.4154 0.950264 446.383 -55.4154 0.950264 446.383
2869 1 -57.0841 0.9185 448.296 -57.0841 0.9185 448.296
2605 1 -42.6498 1.04058 441.2 -42.6498 1.04058 441.2
2602 1 -44.3197 1.00853 443.113 -44.3197 1.00853 443.113
2889 1 -45.9891 0.976501 445.027 -45.9891 0.976501 445.027
2886 1 -47.6579 0.944551 446.941 -47.6579 0.944551 446.941
3170 1 -49.3263 0.912742 448.855 -49.3263 0.912742 448.855
2899 1 -39.9028 0.938965 447.501 -39.9028 0.938965 447.501
3184 1 -41.5712 0.907068 449.415 -41.5712 0.907068 449.415
2580 1 -56.6934 3.98094 441.546 -56.6934 3.98094 441.546
2577 1 -58.3631 3.94889 443.46 -58.3631 3.94889 443.46
2864 1 -60.0326 3.91702 445.373 -60.0326 3.91702 445.373
2862 1 -60.8673 1.68745 446.33 -60.8673 1.68745 446.33
2594 1 -48.9345 3.97467 442.103 -48.9345 3.97467 442.103
2590 1 -50.6039 3.94259 444.017 -50.6039 3.94259 444.017
2878 1 -52.273 3.91059 445.931 -52.273 3.91059 445.931
2875 1 -53.9416 3.87875 447.845 -53.9416 3.87875 447.845
3159 1 -55.61 3.84711 449.758 -55.61 3.84711 449.758
2611 1 -39.5075 4.00101 440.749 -39.5075 4.00101 440.749
2608 1 -41.1777 3.96899 442.662 -41.1777 3.96899 442.662
2894 1 -42.8474 3.93695 444.576 -42.8474 3.93695 444.576
2891 1 -44.5164 3.90495 446.489 -44.5164 3.90495 446.489
2888 1 -46.1849 3.87305 448.404 -46.1849 3.87305 448.404
2904 1 -36.7619 3.89941 447.05 -36.7619 3.89941 447.05
2621 1 -34.0581 3.26473 440.804 -34.0581 3.26473 440.804
2617 1 -36.365 2.53398 440.298 -36.365 2.53398 440.298
2614 1 -38.0357 2.50201 442.211 -38.0357 2.50201 442.211
2908 1 -34.4556 0.202694 447.556 -34.4556 0.202694 447.556
2619 1 -34.8937 1.03504 441.76 -34.8937 1.03504 441.76
2906 1 -35.29 2.40037 448.512 -35.29 2.40037 448.512
2905 1 -35.9273 1.70172 446.093 -35.9273 1.70172 446.093
2620 1 -34.2576 1.73382 444.179 -34.2576 1.73382 444.179
3190 1 -38.4306 3.86742 448.963 -38.4306 3.86742 448.963
2902 1 -37.5963 1.66967 448.006 -37.5963 1.66967 448.006
2903 1 -37.399 3.20073 444.63 -37.399 3.20073 444.63
2615 1 -37.2005 0.304282 441.254 -37.2005 0.304282 441.254
2909 1 -33.6211 2.4325 446.599 -33.6211 2.4325 446.599
14 1 -52.6882 0.26476 399.266 -52.6882 4.69221 399.266
7 1 -57.1912 3.21138 398.375 -57.1912 3.21138 398.375
25 1 -44.8816 0.263852 399.742 -44.8816 4.6913 399.742
38 1 -37.0696 0.200724 400.249 -37.0696 4.62818 400.249
23 1 -46.5504 0.214513 401.644 -46.5504 4.64197 401.644
287 1 -49.8878 0.144501 405.444 -49.8878 4.57195 405.444
878 1 -41.0437 4.43078 414.209 -41.0437 4.43078 414.209
579 1 -47.138 0.0458131 411.738 -47.138 4.47327 411.738
585 1 -43.7899 0.106481 407.914 -43.7899 4.53393 407.914
290 1 -48.22 0.177888 403.537 -48.22 4.60534 403.537
11 1 -54.3135 0.20391 401.109 -54.3135 4.63136 401.109
595 1 -37.6944 0.0635746 410.387 -37.6944 4.49103 410.387
1134 1 -59.9238 4.39149 416.917 -59.9238 4.39149 416.917
283 1 -51.56 0.115002 407.354 -51.56 4.54245 407.354
582 1 -45.464 0.0761569 409.826 -45.464 4.50361 409.826
276 1 -55.9939 0.191227 402.983 -55.9939 4.61868 402.983
569 1 -53.2326 0.0861916 409.266 -53.2326 4.51364 409.266
847 1 -58.2509 4.42237 415.004 -58.2509 4.42237 415.004
556 1 -60.9988 0.100649 408.712 -60.9988 4.5281 408.712
272 1 -57.659 0.164451 404.885 -57.659 4.5919 404.885
3 1 -59.0083 3.21408 400.075 -59.0083 3.21408 400.075
35 1 -38.7578 0.191664 402.169 -38.7578 4.61912 402.169
598 1 -36.0192 0.0932289 408.477 -36.0192 4.52068 408.477