ITEM: TIMESTEP
0
ITEM: NUMBER OF ATOMS
4630
ITEM: BOX BOUNDS xy xz yz pp pp pp
-6.3140988501799995e+01 1.0616002035000000e+02 0.0000000000000000e+00
0.0000000000000000e+00 4.4274527100805940e+00 0.0000000000000000e+00
3.8000000000000000e+02 5.0000000000000000e+02 0.0000000000000000e+00
ITEM: ATOMS id type x y z xu yu zu
27 1 -45.4641 2.16379 399.467 -45.4641 2.16379 399.467
36 1 -39.8709 1.42189 399.525 -39.8709 1.42189 399.525
31 1 -43.0749 2.85705 399.907 -43.0749 2.85705 399.907
22 1 -48.6539 3.60879 399.876 -48.6539 3.60879 399.876
20 1 -49.5251 1.38739 400.725 -49.5251 1.38739 400.725
40 1 -37.484 2.11662 399.967 -37.484 2.11662 399.967
34 1 -40.7197 3.62036 400.363 -40.7197 3.62036 400.363
17 1 -51.8844 0.635926 400.275 -51.8844 0.635926 400.275
9 1 -57.4409 1.32537 400.188 -57.4409 1.32537 400.188
43 1 -35.1299 2.88069 400.424 -35.1299 2.88069 400.424
12 1 -55.1139 2.13923 400.673 -55.1139 2.13923 400.673
5 1 -59.8217 0.655769 399.726 -59.8217 0.655769 399.726
29 1 -43.9342 0.628378 400.763 -43.9342 0.628378 400.763
853 1 -56.8695 2.76 414.882 -56.8695 2.76 414.882
873 1 -45.6957 1.28397 415.007 -45.6957 1.28397 415.007
865 1 -49.7825 0.536624 416.386 -49.7825 0.536624 416.386
1174 1 -37.1061 1.99941 417.952 -37.1061 1.99941 417.952
883 1 -40.1076 0.544643 415.069 -40.1076 0.544643 415.069
863 1 -51.2839 2.02297 414.944 -51.2839 2.02297 414.944
315 1 -35.3534 1.36254 403.722 -35.3534 1.36254 403.722
307 1 -40.3012 2.82355 406.043 -40.3012 2.82355 406.043
1150 1 -51.5053 0.522578 418.268 -51.5053 0.522578 418.268
855 1 -55.3686 1.27395 416.324 -55.3686 1.27395 416.324
310 1 -38.5771 2.83788 404.167 -38.5771 2.83788 404.167
871 1 -46.5577 3.4911 415.947 -46.5577 3.4911 415.947
16 1 -52.7413 2.83447 401.134 -52.7413 2.83447 401.134
309 1 -38.7992 1.33711 407.483 -38.7992 1.33711 407.483
1156 1 -48.2813 3.47763 417.828 -48.2813 3.47763 417.828
867 1 -48.9209 2.75716 415.446 -48.9209 2.75716 415.446
1159 1 -45.9184 4.21168 418.329 -45.9184 4.21168 418.329
1168 1 -40.3308 3.47252 418.391 -40.3308 3.47252 418.391
1170 1 -39.4688 1.2654 417.451 -39.4688 1.2654 417.451
594 1 -39.6613 3.54419 408.424 -39.6613 3.54419 408.424
37 1 -39.2153 2.11624 401.808 -39.2153 2.11624 401.808
851 1 -57.7304 0.538991 415.824 -57.7304 0.538991 415.824
857 1 -54.5076 3.49494 415.383 -54.5076 3.49494 415.383
592 1 -40.5232 1.32381 409.365 -40.5232 1.32381 409.365
849 1 -58.5914 2.74547 416.765 -58.5914 2.74547 416.765
877 1 -43.3326 2.01784 415.508 -43.3326 2.01784 415.508
1143 1 -56.2295 3.48042 417.266 -56.2295 3.48042 417.266
1140 1 -57.9516 3.46593 419.148 -57.9516 3.46593 419.148
845 1 -60.9532 2.01061 416.264 -60.9532 2.01061 416.264
875 1 -44.1946 4.22498 416.449 -44.1946 4.22498 416.449
886 1 -38.3836 0.557919 413.188 -38.3836 0.557919 413.188
891 1 -35.1589 3.51227 412.749 -35.1589 3.51227 412.749
39 1 -37.7195 0.624774 403.215 -37.7195 0.624774 403.215
1177 1 -35.6055 0.513115 419.394 -35.6055 0.513115 419.394
1167 1 -41.1927 1.25216 419.332 -41.1927 1.25216 419.332
8 1 -58.3149 3.58166 401.149 -58.3149 3.58166 401.149
869 1 -47.4196 1.2707 416.888 -47.4196 1.2707 416.888
1136 1 -60.3134 2.73105 418.647 -60.3134 2.73105 418.647
1162 1 -44.4173 2.72522 419.771 -44.4173 2.72522 419.771
15 1 -53.608 0.632902 402.121 -53.608 0.632902 402.121
280 1 -55.3348 0.618018 403.981 -55.3348 0.618018 403.981
277 1 -57.069 0.616021 405.852 -57.069 0.616021 405.852
273 1 -58.7915 0.601618 407.731 -58.7915 0.601618 407.731
560 1 -60.5113 0.585073 409.614 -60.5113 0.585073 409.614
557 1 -62.2327 0.569917 411.498 -62.2327 0.569917 411.498
26 1 -45.6617 0.636399 402.652 -45.6617 0.636399 402.652
294 1 -47.3894 0.624882 404.542 -47.3894 0.624882 404.542
291 1 -49.1136 0.607245 406.421 -49.1136 0.607245 406.421
576 1 -50.8377 0.592688 408.301 -50.8377 0.592688 408.301
573 1 -52.563 0.580745 410.179 -52.563 0.580745 410.179
570 1 -54.2866 0.567823 412.059 -54.2866 0.567823 412.059
854 1 -56.0086 0.553548 413.941 -56.0086 0.553548 413.941
305 1 -41.162 0.603469 406.983 -41.162 0.603469 406.983
589 1 -42.8862 0.59 408.864 -42.8862 0.59 408.864
586 1 -44.6103 0.576496 410.745 -44.6103 0.576496 410.745
872 1 -46.3347 0.563225 412.626 -46.3347 0.563225 412.626
599 1 -36.6596 0.571258 411.307 -36.6596 0.571258 411.307
1132 1 -62.6753 1.9963 418.147 -62.6753 1.9963 418.147
4 1 -60.0828 3.60252 402.952 -60.0828 3.60252 402.952
268 1 -61.7922 3.57319 404.84 -61.7922 3.57319 404.84
1152 1 -50.644 2.74338 417.327 -50.644 2.74338 417.327
19 1 -50.3976 3.5775 401.658 -50.3976 3.5775 401.658
286 1 -52.1122 3.56675 403.525 -52.1122 3.56675 403.525
282 1 -53.8353 3.5597 405.414 -53.8353 3.5597 405.414
279 1 -55.5653 3.55316 407.292 -55.5653 3.55316 407.292
565 1 -57.2893 3.54117 409.173 -57.2893 3.54117 409.173
563 1 -59.0104 3.5261 411.056 -59.0104 3.5261 411.056
846 1 -60.7319 3.51122 412.94 -60.7319 3.51122 412.94
32 1 -42.4387 3.58639 402.236 -42.4387 3.58639 402.236
300 1 -44.1651 3.57743 404.108 -44.1651 3.57743 404.108
297 1 -45.8896 3.56365 405.984 -45.8896 3.56365 405.984
293 1 -47.6128 3.54943 407.863 -47.6128 3.54943 407.863
578 1 -49.3369 3.53545 409.743 -49.3369 3.53545 409.743
575 1 -51.0617 3.52256 411.622 -51.0617 3.52256 411.622
860 1 -52.7853 3.50919 413.502 -52.7853 3.50919 413.502
591 1 -41.3853 3.53078 410.305 -41.3853 3.53078 410.305
588 1 -43.1094 3.51745 412.186 -43.1094 3.51745 412.186
874 1 -44.8336 3.50426 414.067 -44.8336 3.50426 414.067
10 1 -56.8308 2.09201 402.547 -56.8308 2.09201 402.547
274 1 -58.5756 2.10688 404.403 -58.5756 2.10688 404.403
271 1 -60.2931 2.08863 406.286 -60.2931 2.08863 406.286
558 1 -62.0117 2.07084 408.172 -62.0117 2.07084 408.172
24 1 -47.1826 2.11774 401.245 -47.1826 2.11774 401.245
21 1 -48.8975 2.10821 403.099 -48.8975 2.10821 403.099
288 1 -50.6132 2.09121 404.981 -50.6132 2.09121 404.981
285 1 -52.3373 2.07691 406.861 -52.3373 2.07691 406.861
571 1 -54.0643 2.06659 408.737 -54.0643 2.06659 408.737
568 1 -55.788 2.05422 410.617 -55.788 2.05422 410.617
852 1 -57.5096 2.03973 412.499 -57.5096 2.03973 412.499
848 1 -59.2312 2.02507 414.382 -59.2312 2.02507 414.382
306 1 -40.9418 2.10205 403.661 -40.9418 2.10205 403.661
302 1 -42.6641 2.08933 405.54 -42.6641 2.08933 405.54
299 1 -44.3875 2.07658 407.422 -44.3875 2.07658 407.422
583 1 -46.1114 2.06301 409.304 -46.1114 2.06301 409.304
581 1 -47.8358 2.04949 411.184 -47.8358 2.04949 411.184
866 1 -49.5603 2.03644 413.064 -49.5603 2.03644 413.064
880 1 -41.6084 2.03104 413.627 -41.6084 2.03104 413.627
312 1 -37.076 1.35007 405.6 -37.076 1.35007 405.6
2 1 -61.5973 0.669262 401.516 -61.5973 0.669262 401.516
13 1 -54.4641 2.83613 403.027 -54.4641 2.83613 403.027
278 1 -56.2006 2.8306 404.911 -56.2006 2.8306 404.911
275 1 -57.9307 2.82336 406.787 -57.9307 2.82336 406.787
562 1 -59.6509 2.80688 408.672 -59.6509 2.80688 408.672
559 1 -61.3718 2.79107 410.556 -61.3718 2.79107 410.556
1166 1 -42.0546 3.45924 420.272 -42.0546 3.45924 420.272
889 1 -36.0208 1.29191 413.689 -36.0208 1.29191 413.689
28 1 -44.8036 2.85632 401.75 -44.8036 2.85632 401.75
296 1 -46.531 2.84343 403.603 -46.531 2.84343 403.603
292 1 -48.2525 2.82979 405.481 -48.2525 2.82979 405.481
289 1 -49.975 2.81372 407.362 -49.975 2.81372 407.362
574 1 -51.7003 2.80059 409.241 -51.7003 2.80059 409.241
572 1 -53.4251 2.78831 411.119 -53.4251 2.78831 411.119
856 1 -55.1477 2.77453 413 -55.1477 2.77453 413
303 1 -42.0246 2.81015 407.923 -42.0246 2.81015 407.923
587 1 -43.7484 2.79688 409.804 -43.7484 2.79688 409.804
584 1 -45.4725 2.78353 411.685 -45.4725 2.78353 411.685
870 1 -47.1969 2.77039 413.566 -47.1969 2.77039 413.566
6 1 -59.2083 1.38791 402.024 -59.2083 1.38791 402.024
270 1 -60.9363 1.37287 403.892 -60.9363 1.37287 403.892
267 1 -62.6504 1.35032 405.786 -62.6504 1.35032 405.786
890 1 -35.3822 2.01265 416.071 -35.3822 2.01265 416.071
18 1 -51.2461 1.36078 402.605 -51.2461 1.36078 402.605
284 1 -52.971 1.35221 404.482 -52.971 1.35221 404.482
281 1 -54.7012 1.34336 406.357 -54.7012 1.34336 406.357
567 1 -56.4284 1.33445 408.233 -56.4284 1.33445 408.233
564 1 -58.15 1.32 410.115 -58.15 1.32 410.115
561 1 -59.8711 1.30488 411.998 -59.8711 1.30488 411.998
844 1 -61.5929 1.29023 413.881 -61.5929 1.29023 413.881
33 1 -41.5953 1.37757 401.298 -41.5953 1.37757 401.298
30 1 -43.3079 1.36425 403.155 -43.3079 1.36425 403.155
298 1 -45.0275 1.35645 405.04 -45.0275 1.35645 405.04
295 1 -46.7508 1.34305 406.923 -46.7508 1.34305 406.923
580 1 -48.4747 1.3284 408.803 -48.4747 1.3284 408.803
577 1 -50.1994 1.31513 410.682 -50.1994 1.31513 410.682
862 1 -51.9237 1.30224 412.562 -51.9237 1.30224 412.562
590 1 -42.2472 1.31043 411.246 -42.2472 1.31043 411.246
876 1 -43.9714 1.29712 413.127 -43.9714 1.29712 413.127
1163 1 -43.5555 0.51819 418.83 -43.5555 0.51819 418.83
1153 1 -50.0041 3.4637 419.709 -50.0041 3.4637 419.709
311 1 -37.9368 3.558 406.544 -37.9368 3.558 406.544
42 1 -36.0058 0.637684 401.36 -36.0058 0.637684 401.36
1135 1 -61.1745 0.51015 419.589 -61.1745 0.51015 419.589
1171 1 -38.83 1.98618 419.833 -38.83 1.98618 419.833
1139 1 -58.8126 1.24498 420.089 -58.8126 1.24498 420.089
601 1 -35.7976 2.79161 410.367 -35.7976 2.79161 410.367
313 1 -36.2107 3.57214 404.662 -36.2107 3.57214 404.662
858 1 -53.6465 1.2884 414.443 -53.6465 1.2884 414.443
868 1 -48.059 0.550112 414.506 -48.059 0.550112 414.506
1147 1 -53.8675 4.21533 417.767 -53.8675 4.21533 417.767
843 1 -62.454 3.49675 414.823 -62.454 3.49675 414.823
593 1 -39.8844 2.04434 411.747 -39.8844 2.04434 411.747
308 1 -39.4387 0.616603 405.099 -39.4387 0.616603 405.099
861 1 -52.1453 4.22969 415.885 -52.1453 4.22969 415.885
1158 1 -46.7801 1.99117 419.27 -46.7801 1.99117 419.27
884 1 -39.2456 2.765 414.128 -39.2456 2.765 414.128
881 1 -40.9696 2.75176 416.009 -40.9696 2.75176 416.009
885 1 -38.6069 3.48574 416.51 -38.6069 3.48574 416.51
859 1 -53.0064 2.00881 416.826 -53.0064 2.00881 416.826
596 1 -38.1605 2.05765 409.865 -38.1605 2.05765 409.865
879 1 -41.8317 0.531433 416.95 -41.8317 0.531433 416.95
1172 1 -37.9681 4.20652 418.893 -37.9681 4.20652 418.893
1154 1 -49.1428 1.25699 418.769 -49.1428 1.25699 418.769
887 1 -37.7448 1.27863 415.57 -37.7448 1.27863 415.57
597 1 -37.5216 2.77829 412.248 -37.5216 2.77829 412.248
1161 1 -45.0566 2.00464 417.389 -45.0566 2.00464 417.389
1138 1 -59.4524 0.524521 417.706 -59.4524 0.524521 417.706
1149 1 -52.3665 2.72915 419.208 -52.3665 2.72915 419.208
41 1 -36.85 2.84654 402.297 -36.85 2.84654 402.297
888 1 -36.8828 3.49899 414.63 -36.8828 3.49899 414.63
1165 1 -42.6936 2.73855 417.89 -42.6936 2.73855 417.89
1141 1 -57.0905 1.25943 418.207 -57.0905 1.25943 418.207
1145 1 -54.7286 1.99436 418.708 -54.7286 1.99436 418.708
600 1 -36.4368 2.07092 407.984 -36.4368 2.07092 407.984
1148 1 -53.2276 0.508221 420.149 -53.2276 0.508221 420.149
882 1 -40.7464 4.25139 412.687 -40.7464 4.25139 412.687
1157 1 -47.6416 4.19802 420.21 -47.6416 4.19802 420.21
1144 1 -55.5896 4.20084 419.649 -55.5896 4.20084 419.649
602 1 -34.9355 0.584633 409.426 -34.9355 0.584633 409.426
1131 1 -62.8966 0.495846 421.471 -62.8966 0.495846 421.471
1755 1 -35.4128 2.66228 428.422 -35.4128 2.66228 428.422
1460 1 -39.9147 2.69356 424.096 -39.9147 2.69356 424.096
2308 1 -49.6093 3.33 437.77 -49.6093 3.33 437.77
2316 1 -44.6649 1.87229 435.447 -44.6649 1.87229 435.447
2312 1 -47.2477 4.06471 438.271 -47.2477 4.06471 438.271
1464 1 -37.5523 3.42772 424.597 -37.5523 3.42772 424.597
1461 1 -39.053 0.486548 423.156 -39.053 0.486548 423.156
2039 1 -38.2193 3.35551 434.567 -38.2193 3.35551 434.567
2613 1 -40.1629 1.84126 439.773 -40.1629 1.84126 439.773
1467 1 -35.1899 4.1619 425.099 -35.1899 4.1619 425.099
2603 1 -45.7469 2.57856 439.713 -45.7469 2.57856 439.713
1443 1 -49.3643 4.18401 422.092 -49.3643 4.18401 422.092
1748 1 -39.2756 3.41422 426.479 -39.2756 3.41422 426.479
2023 1 -47.0266 1.13765 434.947 -47.0266 1.13765 434.947
2310 1 -48.1085 1.84386 439.212 -48.1085 1.84386 439.212
1151 1 -50.8654 1.24288 420.65 -50.8654 1.24288 420.65
2303 1 -52.8318 0.374371 438.211 -52.8318 0.374371 438.211
2299 1 -55.1936 4.06702 437.71 -55.1936 4.06702 437.71
2033 1 -41.4422 0.400229 435.007 -41.4422 0.400229 435.007
1433 1 -54.9497 0.493779 422.032 -54.9497 0.493779 422.032
1430 1 -56.6718 0.479337 423.914 -56.6718 0.479337 423.914
1426 1 -58.3939 0.464912 425.796 -58.3939 0.464912 425.796
1713 1 -60.1158 0.450507 427.679 -60.1158 0.450507 427.679
1710 1 -61.8378 0.43612 429.561 -61.8378 0.43612 429.561
2330 1 -36.0794 2.59 438.392 -36.0794 2.59 438.392
1160 1 -45.279 0.504724 420.711 -45.279 0.504724 420.711
1447 1 -47.002 0.490937 422.593 -47.002 0.490937 422.593
1444 1 -48.7246 0.47688 424.475 -48.7246 0.47688 424.475
1730 1 -50.4469 0.462656 426.357 -50.4469 0.462656 426.357
1727 1 -52.169 0.448341 428.239 -52.169 0.448341 428.239
1724 1 -53.8911 0.433978 430.121 -53.8911 0.433978 430.121
2008 1 -55.6129 0.419592 432.003 -55.6129 0.419592 432.003
2006 1 -57.3347 0.405198 433.886 -57.3347 0.405198 433.886
1458 1 -40.7763 0.473059 425.037 -40.7763 0.473059 425.037
1743 1 -42.4993 0.459358 426.918 -42.4993 0.459358 426.918
1740 1 -44.222 0.445454 428.8 -44.222 0.445454 428.8
2026 1 -45.9443 0.43139 430.682 -45.9443 0.43139 430.682
2022 1 -47.6665 0.417214 432.564 -47.6665 0.417214 432.564
2019 1 -49.3884 0.402967 434.446 -49.3884 0.402967 434.446
2309 1 -48.7485 1.12341 436.829 -48.7485 1.12341 436.829
1137 1 -59.6736 3.45151 421.03 -59.6736 3.45151 421.03
1421 1 -61.3957 3.43714 422.913 -61.3957 3.43714 422.913
1439 1 -51.7266 3.44946 421.591 -51.7266 3.44946 421.591
1435 1 -53.4488 3.43508 423.473 -53.4488 3.43508 423.473
1432 1 -55.1709 3.42067 425.355 -55.1709 3.42067 425.355
1719 1 -56.8929 3.40625 427.238 -56.8929 3.40625 427.238
1716 1 -58.6149 3.39183 429.12 -58.6149 3.39183 429.12
2001 1 -60.3367 3.37743 431.003 -60.3367 3.37743 431.003
1998 1 -62.0586 3.36304 432.885 -62.0586 3.36304 432.885
2323 1 -39.9416 3.34151 436.449 -39.9416 3.34151 436.449
1453 1 -43.778 3.44576 422.153 -43.778 3.44576 422.153
1450 1 -45.501 3.43202 424.035 -45.501 3.43202 424.035
1446 1 -47.2236 3.41803 425.916 -47.2236 3.41803 425.916
1732 1 -48.946 3.40387 427.798 -48.946 3.40387 427.798
1729 1 -50.6681 3.3896 429.68 -50.6681 3.3896 429.68
2014 1 -52.3901 3.37528 431.563 -52.3901 3.37528 431.563
2011 1 -54.112 3.36092 433.445 -54.112 3.36092 433.445
1745 1 -40.9986 3.40053 428.36 -40.9986 3.40053 428.36
1742 1 -42.7212 3.38665 430.242 -42.7212 3.38665 430.242
2028 1 -44.4436 3.37262 432.123 -44.4436 3.37262 432.123
2025 1 -46.1657 3.35848 434.006 -46.1657 3.35848 434.006
1427 1 -58.1727 1.96543 422.472 -58.1727 1.96543 422.472
1424 1 -59.8948 1.95102 424.355 -59.8948 1.95102 424.355
1711 1 -61.6168 1.93665 426.237 -61.6168 1.93665 426.237
2322 1 -40.8026 1.12075 437.39 -40.8026 1.12075 437.39
1750 1 -37.7749 1.92798 427.92 -37.7749 1.92798 427.92
1155 1 -48.503 1.97732 421.151 -48.503 1.97732 421.151
1441 1 -50.2255 1.96318 423.033 -50.2255 1.96318 423.033
1438 1 -51.9478 1.94888 424.915 -51.9478 1.94888 424.915
1725 1 -53.67 1.93452 426.797 -53.67 1.93452 426.797
1722 1 -55.392 1.92012 428.679 -55.392 1.92012 428.679
1718 1 -57.1139 1.90571 430.562 -57.1139 1.90571 430.562
2003 1 -58.8357 1.89131 432.444 -58.8357 1.89131 432.444
2000 1 -60.5575 1.87691 434.327 -60.5575 1.87691 434.327
1459 1 -40.5538 1.97287 421.714 -40.5538 1.97287 421.714
1455 1 -42.2771 1.95939 423.595 -42.2771 1.95939 423.595
1452 1 -44.0001 1.94567 425.476 -44.0001 1.94567 425.476
1737 1 -45.7228 1.93173 427.358 -45.7228 1.93173 427.358
1735 1 -47.4451 1.91762 429.24 -47.4451 1.91762 429.24
2020 1 -49.1673 1.90341 431.122 -49.1673 1.90341 431.122
2017 1 -50.8893 1.88912 433.004 -50.8893 1.88912 433.004
2034 1 -41.2205 1.90043 431.683 -41.2205 1.90043 431.683
2031 1 -42.9428 1.88642 433.565 -42.9428 1.88642 433.565
2029 1 -43.8039 4.09309 434.506 -43.8039 4.09309 434.506
1146 1 -54.0887 2.71473 421.09 -54.0887 2.71473 421.09
1431 1 -55.8108 2.70028 422.973 -55.8108 2.70028 422.973
1428 1 -57.5329 2.68585 424.855 -57.5329 2.68585 424.855
1715 1 -59.2549 2.67143 426.737 -59.2549 2.67143 426.737
1712 1 -60.9768 2.65704 428.62 -60.9768 2.65704 428.62
1708 1 -62.6987 2.64266 430.502 -62.6987 2.64266 430.502
1747 1 -39.4979 1.91429 429.802 -39.4979 1.91429 429.802
1449 1 -46.1405 2.7116 421.652 -46.1405 2.7116 421.652
1445 1 -47.8633 2.69766 423.534 -47.8633 2.69766 423.534
1442 1 -49.5858 2.68351 425.416 -49.5858 2.68351 425.416
1728 1 -51.308 2.66923 427.298 -51.308 2.66923 427.298
1726 1 -53.0301 2.65489 429.18 -53.0301 2.65489 429.18
2010 1 -54.752 2.64051 431.062 -54.752 2.64051 431.062
2007 1 -56.4738 2.62612 432.945 -56.4738 2.62612 432.945
1456 1 -41.6379 2.67996 425.977 -41.6379 2.67996 425.977
1741 1 -43.3607 2.66616 427.859 -43.3607 2.66616 427.859
1738 1 -45.0832 2.65216 429.741 -45.0832 2.65216 429.741
2024 1 -46.8054 2.63804 431.623 -46.8054 2.63804 431.623
2021 1 -48.5275 2.62382 433.505 -48.5275 2.62382 433.505
2035 1 -40.5811 2.62097 434.066 -40.5811 2.62097 434.066
1754 1 -36.0517 1.94148 426.039 -36.0517 1.94148 426.039
1423 1 -60.5347 1.23059 421.972 -60.5347 1.23059 421.972
1420 1 -62.2567 1.21625 423.854 -62.2567 1.21625 423.854
2044 1 -34.9962 1.88324 434.128 -34.9962 1.88324 434.128
1437 1 -52.5877 1.22855 422.532 -52.5877 1.22855 422.532
1434 1 -54.3099 1.21415 424.414 -54.3099 1.21415 424.414
1721 1 -56.0319 1.19973 426.297 -56.0319 1.19973 426.297
1717 1 -57.7539 1.18531 428.179 -57.7539 1.18531 428.179
1714 1 -59.4758 1.1709 430.061 -59.4758 1.1709 430.061
1999 1 -61.1977 1.15651 431.944 -61.1977 1.15651 431.944
1997 1 -62.9194 1.14213 433.826 -62.9194 1.14213 433.826
1164 1 -42.9164 1.23881 421.213 -42.9164 1.23881 421.213
1451 1 -44.6396 1.2252 423.094 -44.6396 1.2252 423.094
1448 1 -46.3624 1.21132 424.975 -46.3624 1.21132 424.975
1734 1 -48.0848 1.19724 426.857 -48.0848 1.19724 426.857
1731 1 -49.8071 1.18302 428.739 -49.8071 1.18302 428.739
2016 1 -51.5292 1.16872 430.622 -51.5292 1.16872 430.622
2012 1 -53.2511 1.15438 432.504 -53.2511 1.15438 432.504
2009 1 -54.9729 1.14001 434.386 -54.9729 1.14001 434.386
1746 1 -40.1371 1.19368 427.419 -40.1371 1.19368 427.419
1744 1 -41.8599 1.17989 429.301 -41.8599 1.17989 429.301
2030 1 -43.5824 1.16593 431.183 -43.5824 1.16593 431.183
2027 1 -45.3046 1.15183 433.065 -45.3046 1.15183 433.065
2325 1 -39.0805 1.1348 435.508 -39.0805 1.1348 435.508
1749 1 -38.6365 4.13488 428.861 -38.6365 4.13488 428.861
1425 1 -59.0338 4.17195 423.413 -59.0338 4.17195 423.413
1736 1 -46.584 4.13842 428.299 -46.584 4.13842 428.299
1142 1 -56.4507 1.97987 420.59 -56.4507 1.97987 420.59
1720 1 -56.253 4.12664 429.621 -56.253 4.12664 429.621
2005 1 -57.9748 4.11224 431.503 -57.9748 4.11224 431.503
2002 1 -59.6966 4.09783 433.385 -59.6966 4.09783 433.385
1169 1 -39.6919 4.19327 420.773 -39.6919 4.19327 420.773
1723 1 -54.531 4.14105 427.738 -54.531 4.14105 427.738
1440 1 -51.0867 4.16977 423.974 -51.0867 4.16977 423.974
1733 1 -48.3062 4.12425 430.181 -48.3062 4.12425 430.181
2018 1 -50.0283 4.11 432.063 -50.0283 4.11 432.063
2015 1 -51.7502 4.09569 433.946 -51.7502 4.09569 433.946
2036 1 -40.3592 4.12111 430.743 -40.3592 4.12111 430.743
2032 1 -42.0817 4.10716 432.624 -42.0817 4.10716 432.624
2326 1 -38.441 1.85537 437.891 -38.441 1.85537 437.891
1752 1 -36.9133 4.14848 426.98 -36.9133 4.14848 426.98
1457 1 -41.4155 4.17989 422.654 -41.4155 4.17989 422.654
2043 1 -35.6353 1.16252 431.745 -35.6353 1.16252 431.745
2286 1 -62.2792 1.86254 436.209 -62.2792 1.86254 436.209
2319 1 -42.5245 1.1066 439.272 -42.5245 1.1066 439.272
1436 1 -52.8089 4.15543 425.856 -52.8089 4.15543 425.856
1422 1 -60.7558 4.15756 425.296 -60.7558 4.15756 425.296
1173 1 -37.3293 0.499873 421.275 -37.3293 0.499873 421.275
2293 1 -58.4162 1.11128 438.151 -58.4162 1.11128 438.151
2289 1 -60.778 0.376439 437.651 -60.778 0.376439 437.651
2295 1 -56.9151 4.05268 439.593 -56.9151 4.05268 439.593
1465 1 -36.6905 1.22068 423.657 -36.6905 1.22068 423.657
2315 1 -44.886 0.371941 438.771 -44.886 0.371941 438.771
2331 1 -35.8575 4.09006 435.068 -35.8575 4.09006 435.068
2297 1 -56.0544 1.84612 438.652 -56.0544 1.84612 438.652
2324 1 -39.302 4.06205 438.832 -39.302 4.06205 438.832
2306 1 -50.4701 1.10914 438.711 -50.4701 1.10914 438.711
2285 1 -62.4996 0.362093 439.533 -62.4996 0.362093 439.533
1462 1 -38.414 1.20727 425.538 -38.414 1.20727 425.538
1751 1 -37.1359 2.64868 430.303 -37.1359 2.64868 430.303
2329 1 -36.7188 1.86938 436.009 -36.7188 1.86938 436.009
2042 1 -36.4967 3.36937 432.686 -36.4967 3.36937 432.686
2041 1 -37.358 1.14874 433.626 -37.358 1.14874 433.626
2593 1 -51.3309 3.31573 439.653 -51.3309 3.31573 439.653
2328 1 -36.9405 0.369248 439.333 -36.9405 0.369248 439.333
2301 1 -53.6926 2.58094 439.152 -53.6926 2.58094 439.152
1466 1 -35.8287 3.44106 422.717 -35.8287 3.44106 422.717
2298 1 -55.8337 3.34655 435.327 -55.8337 3.34655 435.327
2321 1 -41.6636 3.32741 438.331 -41.6636 3.32741 438.331
2313 1 -46.3868 1.8581 437.33 -46.3868 1.8581 437.33
2294 1 -57.5554 3.33218 437.21 -57.5554 3.33218 437.21
2304 1 -51.971 2.59525 437.27 -51.971 2.59525 437.27
2300 1 -54.3328 1.86046 436.769 -54.3328 1.86046 436.769
2290 1 -59.9172 2.59735 436.71 -59.9172 2.59735 436.71
2318 1 -43.1642 0.386121 436.889 -43.1642 0.386121 436.889
2327 1 -37.5799 4.07611 436.95 -37.5799 4.07611 436.95
2004 1 -58.1956 2.61173 434.827 -58.1956 2.61173 434.827
2013 1 -52.6111 1.8748 434.887 -52.6111 1.8748 434.887
2288 1 -61.4183 4.08345 435.268 -61.4183 4.08345 435.268
2037 1 -39.7199 0.414229 433.125 -39.7199 0.414229 433.125
1739 1 -44.8615 4.15245 426.417 -44.8615 4.15245 426.417
1753 1 -36.2744 0.441774 429.362 -36.2744 0.441774 429.362
2307 1 -50.2493 2.60955 435.387 -50.2493 2.60955 435.387
2314 1 -45.5259 4.07893 436.388 -45.5259 4.07893 436.388
2040 1 -37.9973 0.428087 431.244 -37.9973 0.428087 431.244
2320 1 -42.3032 2.60691 435.948 -42.3032 2.60691 435.948
2292 1 -59.0564 0.390811 435.768 -59.0564 0.390811 435.768
2311 1 -47.8876 3.34426 435.888 -47.8876 3.34426 435.888
2302 1 -53.4719 4.08136 435.828 -53.4719 4.08136 435.828
2296 1 -56.6946 1.12564 436.269 -56.6946 1.12564 436.269
1463 1 -38.1912 2.70695 422.215 -38.1912 2.70695 422.215
2287 1 -61.6388 2.58299 438.592 -61.6388 2.58299 438.592
2291 1 -59.2769 3.31783 439.092 -59.2769 3.31783 439.092
2317 1 -44.0252 2.59276 437.83 -44.0252 2.59276 437.83
2038 1 -38.8586 2.6349 432.184 -38.8586 2.6349 432.184
2305 1 -51.1102 0.388678 436.328 -51.1102 0.388678 436.328
2332 1 -35.2183 0.383268 437.451 -35.2183 0.383268 437.451
1709 1 -62.4778 4.14319 427.178 -62.4778 4.14319 427.178
1468 1 -34.9668 1.23396 421.776 -34.9668 1.23396 421.776
1454 1 -43.1387 4.16629 424.536 -43.1387 4.16629 424.536
1429 1 -57.3117 4.18637 421.531 -57.3117 4.18637 421.531
1133 1 -62.0355 2.71672 420.53 -62.0355 2.71672 420.53
1175 1 -36.4674 2.72023 420.334 -36.4674 2.72023 420.334
2616 1 -38.0226 1.07564 443.598 -38.0226 1.07564 443.598
2901 1 -39.7441 1.06143 445.48 -39.7441 1.06143 445.48
2907 1 -36.5221 4.01698 445.04 -36.5221 4.01698 445.04
3194 1 -37.6034 0.29576 449.305 -37.6034 0.29576 449.305
2587 1 -54.5534 0.360066 440.093 -54.5534 0.360066 440.093
2597 1 -48.9693 4.05047 440.153 -48.9693 4.05047 440.153
2584 1 -56.2748 0.345778 441.976 -56.2748 0.345778 441.976
2581 1 -57.9961 0.331518 443.858 -57.9961 0.331518 443.858
2868 1 -59.7173 0.317291 445.741 -59.7173 0.317291 445.741
2865 1 -61.4385 0.303096 447.623 -61.4385 0.303096 447.623
2601 1 -46.6077 0.357721 440.654 -46.6077 0.357721 440.654
2598 1 -48.3291 0.34349 442.536 -48.3291 0.34349 442.536
2885 1 -50.0505 0.329275 444.419 -50.0505 0.329275 444.419
2882 1 -51.7717 0.315104 446.301 -51.7717 0.315104 446.301
2879 1 -53.4928 0.301001 448.184 -53.4928 0.301001 448.184
2612 1 -40.384 0.340948 443.097 -40.384 0.340948 443.097
2898 1 -42.1054 0.326735 444.979 -42.1054 0.326735 444.979
2895 1 -43.8266 0.312519 446.862 -43.8266 0.312519 446.862
3180 1 -45.5476 0.29833 448.744 -45.5476 0.29833 448.744
2576 1 -60.9984 3.30349 440.975 -60.9984 3.30349 440.975
2574 1 -62.7198 3.28919 442.857 -62.7198 3.28919 442.857
2589 1 -53.0524 3.30146 441.535 -53.0524 3.30146 441.535
2586 1 -54.7737 3.28722 443.418 -54.7737 3.28722 443.418
2874 1 -56.495 3.27301 445.3 -56.495 3.27301 445.3
2871 1 -58.2161 3.25886 447.182 -58.2161 3.25886 447.182
3155 1 -59.9372 3.24474 449.065 -59.9372 3.24474 449.065
2607 1 -43.3853 3.31324 440.213 -43.3853 3.31324 440.213
2604 1 -45.1069 3.29903 442.096 -45.1069 3.29903 442.096
2600 1 -46.8283 3.2848 443.978 -46.8283 3.2848 443.978
2887 1 -48.5495 3.2706 445.86 -48.5495 3.2706 445.86
2884 1 -50.2706 3.25644 447.743 -50.2706 3.25644 447.743
3168 1 -51.9917 3.24236 449.625 -51.9917 3.24236 449.625
2900 1 -40.6047 3.26805 446.421 -40.6047 3.26805 446.421
2897 1 -42.3258 3.25383 448.304 -42.3258 3.25383 448.304
2582 1 -57.7758 1.83179 440.534 -57.7758 1.83179 440.534
2579 1 -59.4972 1.81749 442.416 -59.4972 1.81749 442.416
2866 1 -61.2186 1.80321 444.299 -61.2186 1.80321 444.299
2578 1 -60.1377 1.09693 440.034 -60.1377 1.09693 440.034
2595 1 -49.83 1.82962 441.094 -49.83 1.82962 441.094
2592 1 -51.5514 1.81538 442.977 -51.5514 1.81538 442.977
2880 1 -53.2727 1.80118 444.859 -53.2727 1.80118 444.859
2877 1 -54.9939 1.78703 446.742 -54.9939 1.78703 446.742
2873 1 -56.715 1.77296 448.624 -56.715 1.77296 448.624
2609 1 -41.8846 1.82709 441.655 -41.8846 1.82709 441.655
2606 1 -43.6061 1.81288 443.537 -43.6061 1.81288 443.537
2892 1 -45.3274 1.79866 445.42 -45.3274 1.79866 445.42
2890 1 -47.0486 1.78446 447.302 -47.0486 1.78446 447.302
3174 1 -48.7696 1.77031 449.185 -48.7696 1.77031 449.185
2618 1 -37.1618 3.29646 442.657 -37.1618 3.29646 442.657
2585 1 -55.4141 2.56665 441.035 -55.4141 2.56665 441.035
2583 1 -57.1354 2.55237 442.917 -57.1354 2.55237 442.917
2870 1 -58.8567 2.53813 444.799 -58.8567 2.53813 444.799
2867 1 -60.5779 2.52392 446.682 -60.5779 2.52392 446.682
2863 1 -62.2991 2.50974 448.564 -62.2991 2.50974 448.564
2599 1 -47.4684 2.56433 441.595 -47.4684 2.56433 441.595
2596 1 -49.1898 2.5501 443.477 -49.1898 2.5501 443.477
2883 1 -50.9111 2.53591 445.36 -50.9111 2.53591 445.36
2881 1 -52.6322 2.52177 447.242 -52.6322 2.52177 447.242
3164 1 -54.3533 2.50771 449.125 -54.3533 2.50771 449.125
2610 1 -41.2447 2.54757 444.038 -41.2447 2.54757 444.038
2896 1 -42.966 2.53335 445.921 -42.966 2.53335 445.921
2893 1 -44.6871 2.51915 447.803 -44.6871 2.51915 447.803
3178 1 -46.4081 2.50498 449.685 -46.4081 2.50498 449.685
2575 1 -61.8591 1.08261 441.916 -61.8591 1.08261 441.916
2591 1 -52.1917 1.09486 440.594 -52.1917 1.09486 440.594
2588 1 -53.9131 1.08061 442.476 -53.9131 1.08061 442.476
2876 1 -55.6344 1.06638 444.359 -55.6344 1.06638 444.359
2872 1 -57.3556 1.0522 446.241 -57.3556 1.0522 446.241
2869 1 -59.0767 1.03807 448.124 -59.0767 1.03807 448.124
2605 1 -44.2461 1.09241 441.154 -44.2461 1.09241 441.154
2602 1 -45.9676 1.07819 443.037 -45.9676 1.07819 443.037
2889 1 -47.6889 1.06397 444.919 -47.6889 1.06397 444.919
2886 1 -49.4101 1.04979 446.802 -49.4101 1.04979 446.802
3170 1 -51.1312 1.03566 448.684 -51.1312 1.03566 448.684
2899 1 -41.4653 1.04721 447.362 -41.4653 1.04721 447.362
3184 1 -43.1863 1.03301 449.245 -43.1863 1.03301 449.245
2580 1 -58.6365 4.03836 441.475 -58.6365 4.03836 441.475
2577 1 -60.3579 4.02407 443.358 -60.3579 4.02407 443.358
2864 1 -62.0792 4.00981 445.24 -62.0792 4.00981 445.24
2862 1 -62.9398 1.78897 446.181 -62.9398 1.78897 446.181
2594 1 -50.6907 4.03622 442.036 -50.6907 4.03622 442.036
2590 1 -52.4121 4.022 443.918 -52.4121 4.022 443.918
2878 1 -54.1333 4.00782 445.801 -54.1333 4.00782 445.801
2875 1 -55.8544 3.99371 447.683 -55.8544 3.99371 447.683
3159 1 -57.5755 3.97967 449.566 -57.5755 3.97967 449.566
2611 1 -41.0238 4.04791 440.714 -41.0238 4.04791 440.714
2608 1 -42.7454 4.03371 442.596 -42.7454 4.03371 442.596
2894 1 -44.4668 4.01949 444.479 -44.4668 4.01949 444.479
2891 1 -46.188 4.00528 446.361 -46.188 4.00528 446.361
2888 1 -47.9091 3.99111 448.244 -47.9091 3.99111 448.244
2904 1 -38.2434 4.00275 446.922 -38.2434 4.00275 446.922
2621 1 -35.44 3.3106 440.775 -35.44 3.3106 440.775
2617 1 -37.8014 2.57593 440.274 -37.8014 2.57593 440.274
2614 1 -39.5232 2.56177 442.156 -39.5232 2.56177 442.156
2908 1 -35.8823 0.310018 447.423 -35.8823 0.310018 447.423
2619 1 -36.301 1.08981 441.716 -36.301 1.08981 441.716
2906 1 -36.7429 2.51661 448.364 -36.7429 2.51661 448.364
2905 1 -37.3828 1.79614 445.981 -37.3828 1.79614 445.981
2620 1 -35.6613 1.81036 444.099 -35.6613 1.81036 444.099
3190 1 -39.9645 3.98852 448.804 -39.9645 3.98852 448.804
2902 1 -39.104 1.78191 447.863 -39.104 1.78191 447.863
2903 1 -38.8834 3.28227 444.539 -38.8834 3.28227 444.539
2615 1 -38.6624 0.35513 441.215 -38.6624 0.35513 441.215
2909 1 -35.0216 2.53087 446.482 -35.0216 2.53087 446.482
14 1 -54.2705 4.36886 399.834 -54.2705 4.36886 399.834
7 1 -58.9167 2.87171 398.928 -58.9167 2.87171 398.928
25 1 -46.3092 4.362 400.309 -46.3092 4.362 400.309
38 1 -38.3441 4.31514 400.823 -38.3441 4.31514 400.823
23 1 -48.033 4.33127 402.183 -48.033 4.33127 402.183
287 1 -51.4754 4.29569 405.917 -51.4754 4.29569 405.917
878 1 -42.4705 4.23815 414.568 -42.4705 4.23815 414.568
579 1 -48.6981 4.25672 412.124 -48.6981 4.25672 412.124
585 1 -45.2494 4.28363 408.364 -45.2494 4.28363 408.364
290 1 -49.7558 4.31071 404.038 -49.7558 4.31071 404.038
11 1 -55.9739 4.31512 401.626 -55.9739 4.31512 401.626
595 1 -39.0224 4.26473 410.806 -39.0224 4.26473 410.806
1134 1 -61.8142 4.21716 417.206 -61.8142 4.21716 417.206
283 1 -53.201 4.28504 407.797 -53.201 4.28504 407.797
582 1 -46.9735 4.26993 410.244 -46.9735 4.26993 410.244
276 1 -57.7091 4.32067 403.484 -57.7091 4.32067 403.484
569 1 -54.9265 4.27443 409.676 -54.9265 4.27443 409.676
847 1 -60.0922 4.23154 415.323 -60.0922 4.23154 415.323
556 1 -62.8725 4.27696 409.114 -62.8725 4.27696 409.114
272 1 -59.4368 4.3127 405.345 -59.4368 4.3127 405.345
3 1 -60.7384 2.88151 400.614 -60.7384 2.88151 400.614
35 1 -40.0725 4.32412 402.709 -40.0725 4.32412 402.709
598 1 -37.2984 4.27817 408.925 -37.2984 4.27817 408.925
850 1 -58.3703 4.2461 413.44 -58.3703 4.2461 413.44