ITEM: TIMESTEP
0
ITEM: NUMBER OF ATOMS
4630
ITEM: BOX BOUNDS xy xz yz pp pp pp
-5.5540988501800001e+01 9.8560020350000002e+01 0.0000000000000000e+00
0.0000000000000000e+00 4.4274527100805940e+00 0.0000000000000000e+00
3.8000000000000000e+02 5.0000000000000000e+02 0.0000000000000000e+00
ITEM: ATOMS id type x y z xu yu zu
27 1 -41.7808 2.70014 397.897 -41.7808 2.70014 397.897
36 1 -36.3611 1.95079 397.525 -36.3611 1.95079 397.525
31 1 -39.3896 3.37078 398.147 -39.3896 3.37078 398.147
22 1 -44.8272 4.12673 398.557 -44.8272 4.12673 398.557
20 1 -45.556 1.91189 399.496 -45.556 1.91189 399.496
40 1 -33.9723 2.62479 397.782 -33.9723 2.62479 397.782
34 1 -37.0751 4.15219 398.452 -37.0751 4.15219 398.452
17 1 -47.8741 1.14841 399.203 -47.8741 1.14841 399.203
9 1 -53.2343 1.82484 399.547 -53.2343 1.82484 399.547
43 1 -31.6592 3.40721 398.09 -31.6592 3.40721 398.09
12 1 -50.9587 2.67614 399.884 -50.9587 2.67614 399.884
29 1 -40.1477 1.14604 399.085 -40.1477 1.14604 399.085
853 1 -51.399 3.09151 414.486 -51.399 3.09151 414.486
873 1 -40.6249 1.61899 413.724 -40.6249 1.61899 413.724
865 1 -44.4485 0.849453 415.451 -44.4485 0.849453 415.451
1174 1 -32.0964 2.29397 416.051 -32.0964 2.29397 416.051
883 1 -35.2312 0.879844 413.35 -35.2312 0.879844 413.35
863 1 -46.0146 2.35674 414.104 -46.0146 2.35674 414.104
315 1 -31.5949 1.84099 401.452 -31.5949 1.84099 401.452
307 1 -36.1836 3.28039 404.186 -36.1836 3.28039 404.186
1150 1 -45.9536 0.806032 417.502 -45.9536 0.806032 417.502
855 1 -49.8346 1.58449 415.834 -49.8346 1.58449 415.834
310 1 -34.679 3.3153 402.145 -34.679 3.3153 402.145
871 1 -41.3774 3.81198 414.749 -41.3774 3.81198 414.749
16 1 -48.6167 3.3524 400.146 -48.6167 3.3524 400.146
309 1 -34.6091 1.77413 405.534 -34.6091 1.77413 405.534
1156 1 -42.8829 3.76969 416.799 -42.8829 3.76969 416.799
867 1 -43.6963 3.08447 414.426 -43.6963 3.08447 414.426
1159 1 -40.5644 0.0702063 417.121 -40.5644 4.49766 417.121
1168 1 -35.1715 3.76018 416.747 -35.1715 3.76018 416.747
1170 1 -34.4174 1.56679 415.724 -34.4174 1.56679 415.724
594 1 -35.3613 3.96985 406.557 -35.3613 3.96985 406.557
37 1 -35.4955 2.61427 399.783 -35.4955 2.61427 399.783
851 1 -52.1502 0.855548 415.512 -52.1502 0.855548 415.512
857 1 -49.0831 3.82034 414.808 -49.0831 3.82034 414.808
592 1 -36.1133 1.73752 407.58 -36.1133 1.73752 407.58
849 1 -52.9017 3.04674 416.539 -52.9017 3.04674 416.539
877 1 -38.305 2.34627 414.048 -38.305 2.34627 414.048
1143 1 -50.5865 3.77584 416.86 -50.5865 3.77584 416.86
1140 1 -52.0912 3.73027 418.912 -52.0912 3.73027 418.912
845 1 -55.2162 2.3179 416.218 -55.2162 2.3179 416.218
875 1 -39.0579 0.112009 415.073 -39.0579 4.53946 415.073
886 1 -33.7249 0.919204 411.304 -33.7249 0.919204 411.304
891 1 -30.6483 3.87848 410.61 -30.6483 3.87848 410.61
39 1 -33.9315 1.11622 401.12 -33.9315 1.11622 401.12
1177 1 -30.5298 0.787369 417.402 -30.5298 0.787369 417.402
1167 1 -35.9257 1.5259 417.771 -35.9257 1.5259 417.771
8 1 -54.0094 4.09381 400.601 -54.0094 4.09381 400.601
869 1 -42.1301 1.57724 415.774 -42.1301 1.57724 415.774
1136 1 -54.4058 3.00071 418.592 -54.4058 3.00071 418.592
1162 1 -38.9993 2.99082 418.47 -38.9993 2.99082 418.47
15 1 -49.3729 1.13519 401.214 -49.3729 1.13519 401.214
280 1 -50.8647 1.10414 403.261 -50.8647 1.10414 403.261
277 1 -52.3607 1.07716 405.308 -52.3607 1.07716 405.308
273 1 -53.8511 1.0367 407.363 -53.8511 1.0367 407.363
560 1 -55.3465 0.995807 409.417 -55.3465 0.995807 409.417
26 1 -41.6561 1.13366 401.145 -41.6561 1.13366 401.145
294 1 -43.1574 1.10379 403.207 -43.1574 1.10379 403.207
291 1 -44.6554 1.06595 405.257 -44.6554 1.06595 405.257
576 1 -46.152 1.02565 407.307 -46.152 1.02565 407.307
573 1 -47.6495 0.98501 409.357 -47.6495 0.98501 409.357
570 1 -49.148 0.94292 411.408 -49.148 0.94292 411.408
854 1 -50.6482 0.899718 413.46 -50.6482 0.899718 413.46
305 1 -36.9345 1.04877 405.206 -36.9345 1.04877 405.206
589 1 -38.4366 1.01136 407.253 -38.4366 1.01136 407.253
586 1 -39.9387 0.972681 409.302 -39.9387 0.972681 409.302
872 1 -41.4411 0.932797 411.351 -41.4411 0.932797 411.351
599 1 -32.2185 0.957359 409.259 -32.2185 0.957359 409.259
1152 1 -45.2009 3.0416 416.476 -45.2009 3.0416 416.476
19 1 -46.3151 4.09775 400.53 -46.3151 4.09775 400.53
286 1 -47.8051 4.06168 402.547 -47.8051 4.06168 402.547
282 1 -49.2929 4.02755 404.602 -49.2929 4.02755 404.602
279 1 -50.7879 3.99458 406.654 -50.7879 3.99458 406.654
565 1 -52.2822 3.95533 408.709 -52.2822 3.95533 408.709
563 1 -53.7794 3.91409 410.764 -53.7794 3.91409 410.764
846 1 -55.2787 3.87127 412.817 -55.2787 3.87127 412.817
32 1 -38.5837 4.09595 400.477 -38.5837 4.09595 400.477
300 1 -40.0853 4.06142 402.512 -40.0853 4.06142 402.512
297 1 -41.5837 4.02459 404.558 -41.5837 4.02459 404.558
293 1 -43.0821 3.9868 406.606 -43.0821 3.9868 406.606
578 1 -44.5808 3.94713 408.655 -44.5808 3.94713 408.655
575 1 -46.0805 3.90619 410.705 -46.0805 3.90619 410.705
860 1 -47.5811 3.86384 412.756 -47.5811 3.86384 412.756
591 1 -36.8651 3.93225 408.603 -36.8651 3.93225 408.603
588 1 -38.3687 3.8933 410.651 -38.3687 3.8933 410.651
874 1 -39.8727 3.85318 412.699 -39.8727 3.85318 412.699
10 1 -52.444 2.60406 401.919 -52.444 2.60406 401.919
274 1 -53.9388 2.59084 403.956 -53.9388 2.59084 403.956
271 1 -55.4207 2.5463 406.017 -55.4207 2.5463 406.017
24 1 -43.2534 2.65269 399.859 -43.2534 2.65269 399.859
21 1 -44.7441 2.6105 401.869 -44.7441 2.6105 401.869
288 1 -46.2316 2.57108 403.911 -46.2316 2.57108 403.911
285 1 -47.7234 2.52939 405.958 -47.7234 2.52939 405.958
571 1 -49.2187 2.49017 408.007 -49.2187 2.49017 408.007
568 1 -50.715 2.44898 410.059 -50.715 2.44898 410.059
852 1 -52.2136 2.40655 412.112 -52.2136 2.40655 412.112
848 1 -53.7142 2.36302 414.165 -53.7142 2.36302 414.165
306 1 -37.0061 2.58684 401.813 -37.0061 2.58684 401.813
302 1 -38.509 2.55393 403.855 -38.509 2.55393 403.855
299 1 -40.0092 2.51747 405.903 -40.0092 2.51747 405.903
583 1 -41.5096 2.47952 407.953 -41.5096 2.47952 407.953
581 1 -43.0105 2.43995 410.003 -43.0105 2.43995 410.003
866 1 -44.5121 2.39903 412.053 -44.5121 2.39903 412.053
880 1 -36.7996 2.38656 412 -36.7996 2.38656 412
312 1 -33.1036 1.8089 403.49 -33.1036 1.8089 403.49
13 1 -50.1122 3.32932 402.216 -50.1122 3.32932 402.216
278 1 -51.6127 3.30541 404.276 -51.6127 3.30541 404.276
275 1 -53.1049 3.271 406.333 -53.1049 3.271 406.333
562 1 -54.5981 3.22997 408.39 -54.5981 3.22997 408.39
1166 1 -36.6801 3.71886 418.794 -36.6801 3.71886 418.794
889 1 -31.4021 1.6457 411.633 -31.4021 1.6457 411.633
28 1 -40.9079 3.36286 400.151 -40.9079 3.36286 400.151
296 1 -42.4104 3.33364 402.187 -42.4104 3.33364 402.187
292 1 -43.9075 3.29902 404.234 -43.9075 3.29902 404.234
289 1 -45.4035 3.25978 406.283 -45.4035 3.25978 406.283
574 1 -46.9005 3.21927 408.332 -46.9005 3.21927 408.332
572 1 -48.3986 3.17792 410.382 -48.3986 3.17792 410.382
856 1 -49.8979 3.13517 412.434 -49.8979 3.13517 412.434
303 1 -37.686 3.24385 406.23 -37.686 3.24385 406.23
587 1 -39.1877 3.20584 408.277 -39.1877 3.20584 408.277
584 1 -40.6898 3.1666 410.326 -40.6898 3.1666 410.326
870 1 -42.1927 3.12613 412.376 -42.1927 3.12613 412.376
6 1 -54.7724 1.90144 401.564 -54.7724 1.90144 401.564
890 1 -30.5876 2.33353 414.006 -30.5876 2.33353 414.006
18 1 -47.0557 1.86672 401.533 -47.0557 1.86672 401.533
284 1 -48.5456 1.83197 403.58 -48.5456 1.83197 403.58
281 1 -50.0405 1.79856 405.631 -50.0405 1.79856 405.631
567 1 -51.5349 1.76194 407.683 -51.5349 1.76194 407.683
564 1 -53.0305 1.72114 409.737 -53.0305 1.72114 409.737
561 1 -54.5289 1.67924 411.791 -54.5289 1.67924 411.791
33 1 -37.8435 1.90095 399.482 -37.8435 1.90095 399.482
30 1 -39.3423 1.86251 401.485 -39.3423 1.86251 401.485
298 1 -40.8352 1.82862 403.531 -40.8352 1.82862 403.531
295 1 -42.3329 1.79215 405.58 -42.3329 1.79215 405.58
580 1 -43.8314 1.75337 407.63 -43.8314 1.75337 407.63
577 1 -45.3306 1.71306 409.68 -45.3306 1.71306 409.68
862 1 -46.8307 1.67145 411.73 -46.8307 1.67145 411.73
590 1 -37.6169 1.69922 409.627 -37.6169 1.69922 409.627
876 1 -39.1206 1.65966 411.675 -39.1206 1.65966 411.675
1163 1 -38.2453 0.798106 417.445 -38.2453 0.798106 417.445
1153 1 -44.3894 3.72634 418.849 -44.3894 3.72634 418.849
311 1 -33.8559 4.00574 404.512 -33.8559 4.00574 404.512
42 1 -32.4269 1.1559 399.121 -32.4269 1.1559 399.121
1135 1 -55.1584 0.763534 419.619 -55.1584 0.763534 419.619
1171 1 -33.6056 2.25354 418.097 -33.6056 2.25354 418.097
1139 1 -52.844 1.49336 419.938 -52.844 1.49336 419.938
601 1 -31.4651 3.18964 408.237 -31.4651 3.18964 408.237
313 1 -32.3472 4.0403 402.467 -32.3472 4.0403 402.467
858 1 -48.3319 1.62848 413.782 -48.3319 1.62848 413.782
868 1 -42.9444 0.891731 413.401 -42.9444 0.891731 413.401
1147 1 -48.2705 0.0773702 417.181 -48.2705 4.50482 417.181
593 1 -35.2946 2.42577 409.953 -35.2946 2.42577 409.953
308 1 -35.4316 1.08369 403.161 -35.4316 1.08369 403.161
861 1 -46.7662 0.1214 415.129 -46.7662 4.54885 415.129
1158 1 -41.3179 2.26266 418.146 -41.3179 2.26266 418.146
884 1 -34.478 3.11339 412.327 -34.478 3.11339 412.327
881 1 -35.9845 3.0735 414.374 -35.9845 3.0735 414.374
885 1 -33.6635 3.80062 414.701 -33.6635 3.80062 414.701
859 1 -47.5182 2.31324 416.155 -47.5182 2.31324 416.155
596 1 -33.7896 2.46367 407.908 -33.7896 2.46367 407.908
879 1 -36.738 0.839449 415.398 -36.738 0.839449 415.398
1172 1 -32.8509 0.0601366 417.074 -32.8509 4.48759 417.074
1154 1 -43.6361 1.53442 417.824 -43.6361 1.53442 417.824
887 1 -32.9097 1.60676 413.678 -32.9097 1.60676 413.678
597 1 -32.9717 3.15217 410.281 -32.9717 3.15217 410.281
1161 1 -39.8111 2.30496 416.097 -39.8111 2.30496 416.097
1138 1 -53.6536 0.810151 417.565 -53.6536 0.810151 417.565
1149 1 -46.7066 2.99765 418.527 -46.7066 2.99765 418.527
41 1 -33.171 3.34941 400.114 -33.171 3.34941 400.114
888 1 -32.1559 3.84009 412.655 -32.1559 3.84009 412.655
1165 1 -37.4916 3.03262 416.421 -37.4916 3.03262 416.421
1141 1 -51.3387 1.53946 417.886 -51.3387 1.53946 417.886
1145 1 -49.023 2.26869 418.207 -49.023 2.26869 418.207
600 1 -32.2839 2.50006 405.864 -32.2839 2.50006 405.864
1148 1 -47.4598 0.761562 419.553 -47.4598 0.761562 419.553
882 1 -36.0471 0.192582 410.977 -36.0471 4.62003 410.977
1157 1 -42.0717 0.0274198 419.171 -42.0717 4.45487 419.171
1144 1 -49.7759 0.0323067 419.232 -49.7759 4.45976 419.232
602 1 -30.7114 0.99411 407.215 -30.7114 0.99411 407.215
1755 1 -29.6182 2.8078 426.564 -29.6182 2.8078 426.564
1460 1 -34.3068 2.89875 422.516 -34.3068 2.89875 422.516
2308 1 -42.5758 3.31728 437.178 -42.5758 3.31728 437.178
2316 1 -37.9932 1.90565 434.424 -37.9932 1.90565 434.424
2312 1 -40.2615 4.04999 437.499 -40.2615 4.04999 437.499
1464 1 -31.9873 3.62697 422.842 -31.9873 3.62697 422.842
1461 1 -33.5511 0.705859 421.493 -33.5511 0.705859 421.493
2039 1 -31.8457 3.41158 433.024 -31.8457 3.41158 433.024
2613 1 -33.3176 1.81978 438.464 -33.3176 1.81978 438.464
1467 1 -29.6673 4.35491 423.17 -29.6673 4.35491 423.17
2603 1 -38.7029 2.54553 438.845 -38.7029 2.54553 438.845
1443 1 -43.5798 4.41112 421.221 -43.5798 4.41112 421.221
1748 1 -33.4999 3.58533 424.888 -33.4999 3.58533 424.888
2023 1 -40.3087 1.17383 434.102 -40.3087 1.17383 434.102
2310 1 -41.0169 1.81261 438.524 -41.0169 1.81261 438.524
1151 1 -45.143 1.49056 419.874 -45.143 1.49056 419.874
2303 1 -45.645 0.346894 437.884 -45.645 0.346894 437.884
2299 1 -47.9594 4.0418 437.565 -47.9594 4.0418 437.565
2033 1 -34.9203 0.445658 433.723 -34.9203 0.445658 433.723
1433 1 -48.9669 0.716092 421.605 -48.9669 0.716092 421.605
1430 1 -50.4749 0.669713 423.657 -50.4749 0.669713 423.657
1426 1 -51.9839 0.622594 425.709 -51.9839 0.622594 425.709
1713 1 -53.4935 0.574967 427.761 -53.4935 0.574967 427.761
1710 1 -55.0038 0.527087 429.813 -55.0038 0.527087 429.813
2330 1 -29.4859 2.59458 436.742 -29.4859 2.59458 436.742
1160 1 -39.7535 0.755845 419.494 -39.7535 0.755845 419.494
1447 1 -41.2623 0.712671 421.543 -41.2623 0.712671 421.543
1444 1 -42.7719 0.668582 423.593 -42.7719 0.668582 423.593
1730 1 -44.282 0.62358 425.643 -44.282 0.62358 425.643
1727 1 -45.7925 0.577702 427.694 -45.7925 0.577702 427.694
1724 1 -47.3032 0.531036 429.745 -47.3032 0.531036 429.745
2008 1 -48.8139 0.48373 431.797 -48.8139 0.48373 431.797
2006 1 -50.3243 0.435976 433.848 -50.3243 0.435976 433.848
1458 1 -35.0627 0.663997 423.539 -35.0627 0.663997 423.539
1743 1 -36.5747 0.621358 425.586 -36.5747 0.621358 425.586
1740 1 -38.0871 0.577878 427.634 -38.0871 0.577878 427.634
2026 1 -39.5997 0.533491 429.682 -39.5997 0.533491 429.682
2022 1 -41.1121 0.488154 431.731 -41.1121 0.488154 431.731
2019 1 -42.624 0.441875 433.782 -42.624 0.441875 433.782
2309 1 -41.8204 1.12721 436.153 -41.8204 1.12721 436.153
1137 1 -53.5972 3.68367 420.965 -53.5972 3.68367 420.965
1421 1 -55.1045 3.63625 423.018 -55.1045 3.63625 423.018
1439 1 -45.8968 3.68199 420.9 -45.8968 3.68199 420.9
1435 1 -47.405 3.63666 422.951 -47.405 3.63666 422.951
1432 1 -48.914 3.59045 425.002 -48.914 3.59045 425.002
1719 1 -50.4236 3.54349 427.054 -50.4236 3.54349 427.054
1716 1 -51.9336 3.49599 429.106 -51.9336 3.49599 429.106
2001 1 -53.444 3.44818 431.158 -53.444 3.44818 431.158
1998 1 -54.9546 3.4003 433.21 -54.9546 3.4003 433.21
2323 1 -33.3612 3.36841 435.07 -33.3612 3.36841 435.07
1453 1 -38.1894 3.67669 420.842 -38.1894 3.67669 420.842
1450 1 -39.6994 3.63365 422.891 -39.6994 3.63365 422.891
1446 1 -41.21 3.58972 424.94 -41.21 3.58972 424.94
1732 1 -42.7209 3.5449 426.989 -42.7209 3.5449 426.989
1729 1 -44.2321 3.49919 429.039 -44.2321 3.49919 429.039
2014 1 -45.7433 3.45266 431.09 -45.7433 3.45266 431.09
2011 1 -47.2541 3.40542 433.142 -47.2541 3.40542 433.142
1745 1 -35.0129 3.54296 426.934 -35.0129 3.54296 426.934
1742 1 -36.5262 3.49975 428.981 -36.5262 3.49975 428.981
2028 1 -38.0395 3.45563 431.029 -38.0395 3.45563 431.029
2025 1 -39.5525 3.41051 433.078 -39.5525 3.41051 433.078
1427 1 -52.036 2.1766 422.311 -52.036 2.1766 422.311
1424 1 -53.5442 2.12933 424.363 -53.5442 2.12933 424.363
1711 1 -55.0533 2.08156 426.416 -55.0533 2.08156 426.416
2322 1 -34.1186 1.13266 436.093 -34.1186 1.13266 436.093
1750 1 -31.9375 2.07934 426.237 -31.9375 2.07934 426.237
1155 1 -42.8257 2.21939 420.196 -42.8257 2.21939 420.196
1441 1 -44.3342 2.17516 422.246 -44.3342 2.17516 422.246
1438 1 -45.8434 2.12999 424.297 -45.8434 2.12999 424.297
1725 1 -47.3532 2.08395 426.348 -47.3532 2.08395 426.348
1722 1 -48.8633 2.03714 428.4 -48.8633 2.03714 428.4
1718 1 -50.3737 1.98975 430.451 -50.3737 1.98975 430.451
2003 1 -51.8842 1.94199 432.503 -51.8842 1.94199 432.503
2000 1 -53.3945 1.89407 434.555 -53.3945 1.89407 434.555
1459 1 -35.1154 2.2123 420.143 -35.1154 2.2123 420.143
1455 1 -36.6258 2.17026 422.19 -36.6258 2.17026 422.19
1452 1 -38.1369 2.1274 424.238 -38.1369 2.1274 424.238
1737 1 -39.6484 2.08368 426.287 -39.6484 2.08368 426.287
1735 1 -41.1602 2.03906 428.336 -41.1602 2.03906 428.336
2020 1 -42.672 1.99353 430.385 -42.672 1.99353 430.385
2017 1 -44.1835 1.94712 432.436 -44.1835 1.94712 432.436
2034 1 -34.9657 1.99438 430.328 -34.9657 1.99438 430.328
2031 1 -36.4797 1.95054 432.376 -36.4797 1.95054 432.376
2029 1 -37.2366 4.14196 433.4 -37.2366 4.14196 433.4
1146 1 -48.2132 2.95267 420.579 -48.2132 2.95267 420.579
1431 1 -49.7208 2.90673 422.631 -49.7208 2.90673 422.631
1428 1 -51.2293 2.85996 424.683 -51.2293 2.85996 424.683
1715 1 -52.7386 2.81255 426.735 -52.7386 2.81255 426.735
1712 1 -54.2486 2.76477 428.787 -54.2486 2.76477 428.787
1747 1 -33.4515 2.03727 428.282 -33.4515 2.03727 428.282
1449 1 -40.5078 2.9481 420.519 -40.5078 2.9481 420.519
1445 1 -42.017 2.90447 422.568 -42.017 2.90447 422.568
1442 1 -43.5269 2.85992 424.618 -43.5269 2.85992 424.618
1728 1 -45.0372 2.81447 426.668 -45.0372 2.81447 426.668
1726 1 -46.5479 2.76819 428.719 -46.5479 2.76819 428.719
2010 1 -48.0586 2.72118 430.771 -48.0586 2.72118 430.771
2007 1 -49.5692 2.67362 432.822 -49.5692 2.67362 432.822
1456 1 -35.8186 2.8565 424.562 -35.8186 2.8565 424.562
1741 1 -37.3309 2.81345 426.61 -37.3309 2.81345 426.61
1738 1 -38.8434 2.76953 428.658 -38.8434 2.76953 428.658
2024 1 -40.3559 2.72467 430.707 -40.3559 2.72467 430.707
2021 1 -41.8681 2.67886 432.756 -41.8681 2.67886 432.756
2035 1 -34.163 2.68128 432.699 -34.163 2.68128 432.699
1754 1 -30.4239 2.12072 424.192 -30.4239 2.12072 424.192
1423 1 -54.3507 1.44632 421.991 -54.3507 1.44632 421.991
2044 1 -28.7695 1.94843 432.328 -28.7695 1.94843 432.328
1437 1 -46.6508 1.44572 421.925 -46.6508 1.44572 421.925
1434 1 -48.1594 1.39993 423.977 -48.1594 1.39993 423.977
1721 1 -49.6687 1.35333 426.028 -49.6687 1.35333 426.028
1717 1 -51.1785 1.30607 428.08 -51.1785 1.30607 428.08
1714 1 -52.6888 1.25839 430.132 -52.6888 1.25839 430.132
1999 1 -54.1993 1.21051 432.184 -54.1993 1.21051 432.184
1164 1 -37.4347 1.48415 419.818 -37.4347 1.48415 419.818
1451 1 -38.9443 1.44155 421.866 -38.9443 1.44155 421.866
1448 1 -40.4546 1.39807 423.915 -40.4546 1.39807 423.915
1734 1 -41.9654 1.3537 425.964 -41.9654 1.3537 425.964
1731 1 -43.4765 1.30843 428.014 -43.4765 1.30843 428.014
2016 1 -44.9877 1.2623 430.065 -44.9877 1.2623 430.065
2012 1 -46.4987 1.21539 432.116 -46.4987 1.21539 432.116
2009 1 -48.0094 1.16786 434.168 -48.0094 1.16786 434.168
1746 1 -34.2564 1.35052 425.911 -34.2564 1.35052 425.911
1744 1 -35.7696 1.30774 427.957 -35.7696 1.30774 427.957
2030 1 -37.2829 1.26409 430.005 -37.2829 1.26409 430.005
2027 1 -38.7961 1.21947 432.053 -38.7961 1.21947 432.053
2325 1 -32.6035 1.17641 434.047 -32.6035 1.17641 434.047
1749 1 -32.6945 4.27212 427.259 -32.6945 4.27212 427.259
1425 1 -52.79 4.36677 423.337 -52.79 4.36677 423.337
1736 1 -40.4042 4.27521 427.311 -40.4042 4.27521 427.311
1142 1 -50.529 2.22312 420.259 -50.529 2.22312 420.259
1720 1 -49.6185 4.22723 429.425 -49.6185 4.22723 429.425
2005 1 -51.129 4.17963 431.477 -51.129 4.17963 431.477
2002 1 -52.6394 4.13176 433.529 -52.6394 4.13176 433.529
1169 1 -34.3604 0.019295 419.12 -34.3604 4.44675 419.12
1723 1 -48.1082 4.27436 427.374 -48.1082 4.27436 427.374
1440 1 -45.0887 4.36642 423.272 -45.0887 4.36642 423.272
1733 1 -41.9161 4.23013 429.36 -41.9161 4.23013 429.36
2018 1 -43.4278 4.18415 431.411 -43.4278 4.18415 431.411
2015 1 -44.9391 4.13734 433.461 -44.9391 4.13734 433.461
2036 1 -34.2086 4.22966 429.305 -34.2086 4.22966 429.305
2032 1 -35.7228 4.18631 431.352 -35.7228 4.18631 431.352
2326 1 -31.8025 1.86388 436.417 -31.8025 1.86388 436.417
1752 1 -31.1806 4.31384 425.214 -31.1806 4.31384 425.214
1457 1 -35.8705 4.40511 421.167 -35.8705 4.40511 421.167
2043 1 -29.5718 1.2608 429.957 -29.5718 1.2608 429.957
2286 1 -54.9045 1.84625 436.607 -54.9045 1.84625 436.607
2319 1 -35.6325 1.08763 438.141 -35.6325 1.08763 438.141
1436 1 -46.5982 4.3208 425.322 -46.5982 4.3208 425.322
1422 1 -54.2986 4.31921 425.39 -54.2986 4.31921 425.39
1173 1 -32.0402 0.746982 419.447 -32.0402 0.746982 419.447
2293 1 -51.0286 1.07179 438.272 -51.0286 1.07179 438.272
2289 1 -53.3437 0.340049 437.953 -53.3437 0.340049 437.953
2295 1 -49.468 3.99353 439.617 -49.468 3.99353 439.617
1465 1 -31.2312 1.43381 421.82 -31.2312 1.43381 421.82
2315 1 -37.9471 0.355175 437.82 -37.9471 0.355175 437.82
2331 1 -29.5279 4.1414 433.35 -29.5279 4.1414 433.35
2297 1 -48.7138 1.80395 438.591 -48.7138 1.80395 438.591
2324 1 -32.5602 4.05573 437.44 -32.5602 4.05573 437.44
2306 1 -43.3309 1.07969 438.204 -43.3309 1.07969 438.204
2285 1 -54.8523 0.29236 440.005 -54.8523 0.29236 440.005
1462 1 -32.7435 1.39251 423.865 -32.7435 1.39251 423.865
1751 1 -31.133 2.76641 428.608 -31.133 2.76641 428.608
2329 1 -30.2863 1.90668 434.372 -30.2863 1.90668 434.372
2042 1 -30.3298 3.45375 430.979 -30.3298 3.45375 430.979
2041 1 -31.0878 1.21905 432.002 -31.0878 1.21905 432.002
2593 1 -44.0855 3.26939 439.23 -44.0855 3.26939 439.23
2328 1 -30.2442 0.359492 437.765 -30.2442 0.359492 437.765
2301 1 -46.3995 2.53651 438.91 -46.3995 2.53651 438.91
1466 1 -30.4753 3.66794 420.797 -30.4753 3.66794 420.797
2298 1 -48.7645 3.35765 435.194 -48.7645 3.35765 435.194
2321 1 -34.8757 3.32403 437.117 -34.8757 3.32403 437.117
2313 1 -39.5057 1.85966 436.473 -39.5057 1.85966 436.473
2294 1 -50.2741 3.30958 437.246 -50.2741 3.30958 437.246
2304 1 -44.8902 2.58462 436.858 -44.8902 2.58462 436.858
2300 1 -47.2047 1.85213 436.539 -47.2047 1.85213 436.539
2290 1 -52.5891 2.57773 436.927 -52.5891 2.57773 436.927
2318 1 -36.4343 0.401017 435.77 -36.4343 0.401017 435.77
2327 1 -31.0445 4.09915 435.394 -31.0445 4.09915 435.394
2004 1 -51.0794 2.62573 434.874 -51.0794 2.62573 434.874
2013 1 -45.6945 1.89993 434.487 -45.6945 1.89993 434.487
2288 1 -54.1495 4.08386 435.581 -54.1495 4.08386 435.581
2037 1 -33.4055 0.489176 431.676 -33.4055 0.489176 431.676
1739 1 -38.8926 4.31937 425.262 -38.8926 4.31937 425.262
1753 1 -30.3755 0.57346 427.586 -30.3755 0.57346 427.586
2307 1 -43.3796 2.63213 434.807 -43.3796 2.63213 434.807
2314 1 -38.7496 4.09652 435.449 -38.7496 4.09652 435.449
2040 1 -31.8905 0.531719 429.631 -31.8905 0.531719 429.631
2320 1 -35.6774 2.63721 434.746 -35.6774 2.63721 434.746
2292 1 -51.8343 0.388002 435.901 -51.8343 0.388002 435.901
2311 1 -41.0647 3.36437 435.127 -41.0647 3.36437 435.127
2302 1 -46.4497 4.08982 435.513 -46.4497 4.08982 435.513
2296 1 -49.5194 1.11991 436.22 -49.5194 1.11991 436.22
1463 1 -32.7956 2.94024 420.47 -32.7956 2.94024 420.47
2287 1 -54.0981 2.52988 438.979 -54.0981 2.52988 438.979
2291 1 -51.7828 3.26147 439.298 -51.7828 3.26147 439.298
2317 1 -37.1909 2.59197 436.795 -37.1909 2.59197 436.795
2038 1 -32.648 2.72428 430.653 -32.648 2.72428 430.653
2305 1 -44.1351 0.394736 435.833 -44.1351 0.394736 435.833
2332 1 -28.7273 0.401898 435.72 -28.7273 0.401898 435.72
1468 1 -29.7195 1.47445 419.775 -29.7195 1.47445 419.775
1454 1 -37.3813 4.36266 423.214 -37.3813 4.36266 423.214
1429 1 -51.2824 4.4137 421.285 -51.2824 4.4137 421.285
1175 1 -31.2849 2.981 418.424 -31.2849 2.981 418.424
2616 1 -30.9598 1.00306 442.182 -30.9598 1.00306 442.182
2901 1 -32.4719 0.956848 444.231 -32.4719 0.956848 444.231
2907 1 -29.4032 3.9268 443.529 -29.4032 3.9268 443.529
3194 1 -30.1136 0.139243 447.95 -30.1136 0.139243 447.95
2587 1 -47.1537 0.298586 439.937 -47.1537 0.298586 439.937
2597 1 -41.7718 4.00247 439.55 -41.7718 4.00247 439.55
2584 1 -48.6608 0.250108 441.99 -48.6608 0.250108 441.99
2581 1 -50.1663 0.201794 444.043 -50.1663 0.201794 444.043
2868 1 -51.6704 0.153991 446.096 -51.6704 0.153991 446.096
2865 1 -53.173 0.107033 448.148 -53.173 0.107033 448.148
2601 1 -39.4582 0.308161 439.87 -39.4582 0.308161 439.87
2598 1 -40.9672 0.260145 441.922 -40.9672 0.260145 441.922
2885 1 -42.4738 0.21143 443.975 -42.4738 0.21143 443.975
2882 1 -43.9779 0.162426 446.029 -43.9779 0.162426 446.029
2879 1 -45.4795 0.11361 448.084 -45.4795 0.11361 448.084
2612 1 -33.2733 0.270269 441.859 -33.2733 0.270269 441.859
2898 1 -34.784 0.223221 443.909 -34.784 0.223221 443.909
2895 1 -36.2913 0.174756 445.962 -36.2913 0.174756 445.962
3180 1 -37.795 0.125318 448.016 -37.795 0.125318 448.016
2576 1 -53.2905 3.21359 441.351 -53.2905 3.21359 441.351
2574 1 -54.7971 3.16621 443.403 -54.7971 3.16621 443.403
2589 1 -45.5936 3.22095 441.283 -45.5936 3.22095 441.283
2586 1 -47.0998 3.17229 443.336 -47.0998 3.17229 443.336
2874 1 -48.6041 3.12377 445.389 -48.6041 3.12377 445.389
2871 1 -50.1067 3.07579 447.443 -50.1067 3.07579 447.443
3155 1 -51.6077 3.0287 449.496 -51.6077 3.0287 449.496
2607 1 -36.3888 3.27834 439.166 -36.3888 3.27834 439.166
2604 1 -37.8998 3.23134 441.216 -37.8998 3.23134 441.216
2600 1 -39.4083 3.18321 443.269 -39.4083 3.18321 443.269
2887 1 -40.914 3.13431 445.322 -40.914 3.13431 445.322
2884 1 -42.4169 3.0851 447.377 -42.4169 3.0851 447.377
3168 1 -43.9171 3.03614 449.432 -43.9171 3.03614 449.432
2900 1 -33.2267 3.1468 445.256 -33.2267 3.1468 445.256
2897 1 -34.7333 3.0981 447.309 -34.7333 3.0981 447.309
2582 1 -50.2218 1.75566 440.644 -50.2218 1.75566 440.644
2579 1 -51.7285 1.70756 442.696 -51.7285 1.70756 442.696
2866 1 -53.2338 1.65997 444.749 -53.2338 1.65997 444.749
2578 1 -52.5368 1.02376 440.324 -52.5368 1.02376 440.324
2595 1 -42.5262 1.76467 440.576 -42.5262 1.76467 440.576
2592 1 -44.0336 1.7161 442.629 -44.0336 1.7161 442.629
2880 1 -45.5388 1.66727 444.682 -45.5388 1.66727 444.682
2877 1 -47.0418 1.61859 446.736 -47.0418 1.61859 446.736
2873 1 -48.5429 1.57049 448.79 -48.5429 1.57049 448.79
2609 1 -34.8308 1.77422 440.512 -34.8308 1.77422 440.512
2606 1 -36.3417 1.72721 442.563 -36.3417 1.72721 442.563
2892 1 -37.8497 1.67894 444.615 -37.8497 1.67894 444.615
2890 1 -39.3545 1.62979 446.669 -39.3545 1.62979 446.669
3174 1 -40.856 1.58031 448.724 -40.856 1.58031 448.724
2618 1 -30.2026 3.2392 441.158 -30.2026 3.2392 441.158
2585 1 -47.9074 2.48807 440.963 -47.9074 2.48807 440.963
2583 1 -49.4137 2.43964 443.016 -49.4137 2.43964 443.016
2870 1 -50.9185 2.39153 445.069 -50.9185 2.39153 445.069
2867 1 -52.4219 2.34411 447.122 -52.4219 2.34411 447.122
2863 1 -53.924 2.29769 449.175 -53.924 2.29769 449.175
2599 1 -40.2129 2.49799 440.896 -40.2129 2.49799 440.896
2596 1 -41.7208 2.44958 442.949 -41.7208 2.44958 442.949
2883 1 -43.2261 2.40066 445.002 -43.2261 2.40066 445.002
2881 1 -44.729 2.35169 447.057 -44.729 2.35169 447.057
3164 1 -46.2295 2.30315 449.111 -46.2295 2.30315 449.111
2610 1 -34.029 2.46067 442.884 -34.029 2.46067 442.884
2896 1 -35.5381 2.41287 444.935 -35.5381 2.41287 444.935
2893 1 -37.0437 2.36385 446.989 -37.0437 2.36385 446.989
3178 1 -38.5455 2.31415 449.044 -38.5455 2.31415 449.044
2575 1 -54.0439 0.976094 442.377 -54.0439 0.976094 442.377
2591 1 -44.8398 1.03149 440.256 -44.8398 1.03149 440.256
2588 1 -46.3469 0.982899 442.309 -46.3469 0.982899 442.309
2876 1 -47.8521 0.934263 444.363 -47.8521 0.934263 444.363
2872 1 -49.3556 0.885965 446.416 -49.3556 0.885965 446.416
2869 1 -50.8574 0.838386 448.469 -50.8574 0.838386 448.469
2605 1 -37.1446 1.04127 440.191 -37.1446 1.04127 440.191
2602 1 -38.6544 0.993671 442.242 -38.6544 0.993671 442.242
2889 1 -40.1615 0.945106 444.295 -40.1615 0.945106 444.295
2886 1 -41.6659 0.895984 446.349 -41.6659 0.895984 446.349
3170 1 -43.1673 0.846824 448.404 -43.1673 0.846824 448.404
2899 1 -33.9805 0.908893 446.282 -33.9805 0.908893 446.282
3184 1 -35.4851 0.859589 448.336 -35.4851 0.859589 448.336
2580 1 -50.9753 3.94529 441.67 -50.9753 3.94529 441.67
2577 1 -52.4813 3.89741 443.723 -52.4813 3.89741 443.723
2864 1 -53.9861 3.85019 445.775 -53.9861 3.85019 445.775
2862 1 -54.738 1.61318 446.801 -54.738 1.61318 446.801
2594 1 -43.2802 3.95417 441.602 -43.2802 3.95417 441.602
2590 1 -44.7865 3.90542 443.656 -44.7865 3.90542 443.656
2878 1 -46.2906 3.85661 445.709 -46.2906 3.85661 445.709
2875 1 -47.7926 3.80817 447.763 -47.7926 3.80817 447.763
3159 1 -49.2927 3.76051 449.817 -49.2927 3.76051 449.817
2611 1 -34.0745 4.01091 439.488 -34.0745 4.01091 439.488
2608 1 -35.5866 3.96462 441.537 -35.5866 3.96462 441.537
2894 1 -37.0961 3.91694 443.589 -37.0961 3.91694 443.589
2891 1 -38.6025 3.86817 445.642 -38.6025 3.86817 445.642
2888 1 -40.1056 3.81878 447.696 -40.1056 3.81878 447.696
2904 1 -30.9153 3.88058 445.577 -30.9153 3.88058 445.577
2621 1 -28.6864 3.2827 439.112 -28.6864 3.2827 439.112
2617 1 -31.0022 2.55151 438.788 -31.0022 2.55151 438.788
2614 1 -32.5169 2.50691 440.835 -32.5169 2.50691 440.835
2908 1 -28.6038 0.186659 445.9 -28.6038 0.186659 445.9
2619 1 -29.4447 1.04743 440.135 -29.4447 1.04743 440.135
2906 1 -29.3593 2.37696 446.924 -29.3593 2.37696 446.924
2905 1 -30.1597 1.69023 444.553 -30.1597 1.69023 444.553
2620 1 -28.6458 1.7354 442.505 -28.6458 1.7354 442.505
3190 1 -32.4234 3.83242 447.629 -32.4234 3.83242 447.629
2902 1 -31.6699 1.64299 446.603 -31.6699 1.64299 446.603
2903 1 -31.7163 3.19391 443.206 -31.7163 3.19391 443.206
2615 1 -31.7598 0.315686 439.811 -31.7598 0.315686 439.811
2909 1 -27.8472 2.42323 444.876 -27.8472 2.42323 444.876
14 1 -50.2641 0.474764 398.952 -50.2641 4.90222 398.952
7 1 -54.7633 3.42658 398.421 -54.7633 3.42658 398.421
25 1 -42.5033 0.473398 398.823 -42.5033 4.90085 398.823
38 1 -34.7271 0.40024 398.72 -34.7271 4.82769 398.72
23 1 -43.9942 0.419191 400.858 -43.9942 4.84664 400.858
287 1 -46.9774 0.335426 404.933 -46.9774 4.76288 404.933
878 1 -37.5522 0.152816 413.024 -37.5522 4.58027 413.024
579 1 -43.7611 0.205947 411.028 -43.7611 4.6334 411.028
585 1 -40.7592 0.285078 406.928 -40.7592 4.71253 406.928
290 1 -45.4873 0.376807 402.89 -45.4873 4.80426 402.89
11 1 -51.7026 0.411911 400.937 -51.7026 4.83936 400.937
595 1 -34.5421 0.231183 408.93 -34.5421 4.65864 408.93
283 1 -48.4711 0.295879 406.982 -48.4711 4.72333 406.982
582 1 -42.2599 0.246216 408.978 -42.2599 4.67367 408.978
276 1 -53.1999 0.391514 402.946 -53.1999 4.81897 402.946
569 1 -49.9667 0.256007 409.032 -49.9667 4.68346 409.032
847 1 -54.465 0.126938 415.191 -54.465 4.55439 415.191
272 1 -54.6792 0.354546 404.99 -54.6792 4.782 404.99
35 1 -36.2457 0.386723 400.776 -36.2457 4.81418 400.776
598 1 -33.0367 0.268382 406.886 -33.0367 4.69583 406.886
850 1 -52.9637 0.171235 413.138 -52.9637 4.59869 413.138
304 1 -37.7552 0.358623 402.83 -37.7552 4.78608 402.83
301 1 -39.2582 0.322593 404.88 -39.2582 4.75005 404.88
314 1 -31.5302 0.30412 404.842 -31.5302 4.73157 404.842
864 1 -45.2632 0.164329 413.078 -45.2632 4.59178 413.078
566 1 -51.464 0.214109 411.085 -51.464 4.64156 411.085
1176 1 -31.3419 0.10014 415.029 -31.3419 4.52759 415.029
85 1 -6.19454 1.20763 395.097 -6.19454 1.20763 395.097
58 1 -23.1396 1.13449 397.07 -23.1396 1.13449 397.07
45 1 -30.9444 1.20585 397.164 -30.9444 1.20585 397.164
49 1 -28.5558 1.87946 397.424 -28.5558 1.87946 397.424
72 1 -14.6991 3.40143 396.108 -14.6991 3.40143 396.108
80 1 -9.25095 2.63048 395.74 -9.25095 2.63048 395.74
75 1 -12.3129 4.07833 396.372 -12.3129 4.07833 396.372
83 1 -6.92561 3.40731 396.017 -6.92561 3.40731 396.017
52 1 -26.2431 2.66194 397.734 -26.2431 2.66194 397.734
61 1 -20.8274 1.91774 397.382 -20.8274 1.91774 397.382
63 1 -20.1116 4.14394 396.457 -20.1116 4.14394 396.457
87 1 -4.56824 4.08656 396.293 -4.56824 4.08656 396.293
70 1 -15.4124 1.1754 397.034 -15.4124 1.1754 397.034
47 1 -29.3117 4.08235 398.361 -29.3117 4.08235 398.361
912 1 -17.4581 1.57817 413.628 -17.4581 1.57817 413.628