ITEM: TIMESTEP
0
ITEM: NUMBER OF ATOMS
4630
ITEM: BOX BOUNDS xy xz yz pp pp pp
-5.8640988501799995e+01 1.0166002035000000e+02 0.0000000000000000e+00
0.0000000000000000e+00 4.4274527100805940e+00 0.0000000000000000e+00
3.8000000000000000e+02 5.0000000000000000e+02 0.0000000000000000e+00
ITEM: ATOMS id type x y z xu yu zu
27 1 -42.9239 2.63265 398.442 -42.9239 2.63265 398.442
36 1 -37.5018 1.88337 398.357 -37.5018 1.88337 398.357
31 1 -40.5503 3.30189 398.818 -40.5503 3.30189 398.818
22 1 -45.9961 4.0584 398.94 -45.9961 4.0584 398.94
20 1 -46.7708 1.84398 399.84 -46.7708 1.84398 399.84
40 1 -35.1311 2.55551 398.739 -35.1311 2.55551 398.739
34 1 -38.2592 4.08509 399.246 -38.2592 4.08509 399.246
17 1 -49.0681 1.08025 399.423 -49.0681 1.08025 399.423
9 1 -54.4364 1.75778 399.482 -54.4364 1.75778 399.482
43 1 -32.8425 3.33994 399.171 -32.8425 3.33994 399.171
12 1 -52.1827 2.60911 399.94 -52.1827 2.60911 399.94
5 1 -56.8035 1.13847 399.099 -56.8035 1.13847 399.099
29 1 -41.355 1.0776 399.715 -41.355 1.0776 399.715
853 1 -53.374 3.04259 414.497 -53.374 3.04259 414.497
873 1 -42.5781 1.56183 414.319 -42.5781 1.56183 414.319
865 1 -46.4803 0.797007 415.838 -46.4803 0.797007 415.838
1174 1 -34.1842 2.23752 417.101 -34.1842 2.23752 417.101
883 1 -37.1778 0.820421 414.235 -37.1778 0.820421 414.235
863 1 -47.9771 2.30292 414.408 -47.9771 2.30292 414.408
315 1 -32.9506 1.77182 402.535 -32.9506 1.77182 402.535
307 1 -37.6656 3.21281 405.024 -37.6656 3.21281 405.024
1150 1 -48.0838 0.758393 417.806 -48.0838 0.758393 417.806
855 1 -51.8778 1.53689 415.928 -51.8778 1.53689 415.928
310 1 -36.061 3.24708 403.065 -36.061 3.24708 403.065
871 1 -43.3799 3.75672 415.302 -43.3799 3.75672 415.302
16 1 -49.8587 3.28461 400.326 -49.8587 3.28461 400.326
309 1 -36.1642 1.70688 406.456 -36.1642 1.70688 406.456
1156 1 -44.9838 3.71864 417.269 -44.9838 3.71864 417.269
867 1 -45.6786 3.02983 414.855 -45.6786 3.02983 414.855
1159 1 -42.6855 0.0184393 417.717 -42.6855 4.44589 417.717
1168 1 -37.286 3.70566 417.633 -37.286 3.70566 417.633
1170 1 -36.4834 1.51049 416.65 -36.4834 1.51049 416.65
594 1 -36.9663 3.90338 407.438 -36.9663 3.90338 407.438
37 1 -36.753 2.54529 400.659 -36.753 2.54529 400.659
851 1 -54.1752 0.809518 415.481 -54.1752 0.809518 415.481
857 1 -51.0765 3.77005 414.944 -51.0765 3.77005 414.944
592 1 -37.7681 1.67195 408.42 -37.7681 1.67195 408.42
849 1 -54.9764 3.00376 416.465 -54.9764 3.00376 416.465
877 1 -40.2791 2.28873 414.768 -40.2791 2.28873 414.768
1143 1 -52.6792 3.73109 416.912 -52.6792 3.73109 416.912
1140 1 -54.2821 3.69164 418.881 -54.2821 3.69164 418.881
845 1 -57.2735 2.2769 416.019 -57.2735 2.2769 416.019
875 1 -41.0812 0.0562795 415.751 -41.0812 4.48373 415.751
886 1 -35.5732 0.85684 412.27 -35.5732 0.85684 412.27
891 1 -32.4702 3.81458 411.74 -32.4702 3.81458 411.74
39 1 -35.2633 1.04812 402.08 -35.2633 1.04812 402.08
1177 1 -32.688 0.73254 418.535 -32.688 0.73254 418.535
1167 1 -38.0886 1.47324 418.615 -38.0886 1.47324 418.615
8 1 -55.2662 4.02724 400.493 -55.2662 4.02724 400.493
869 1 -44.1818 1.52402 416.286 -44.1818 1.52402 416.286
1136 1 -56.579 2.96425 418.434 -56.579 2.96425 418.434
1162 1 -41.1895 2.94054 419.149 -41.1895 2.94054 419.149
15 1 -50.6699 1.06766 401.353 -50.6699 1.06766 401.353
280 1 -52.2669 1.03796 403.317 -52.2669 1.03796 403.317
277 1 -53.8682 1.01336 405.281 -53.8682 1.01336 405.281
273 1 -55.4639 0.97639 407.252 -55.4639 0.97639 407.252
560 1 -57.0639 0.940006 409.221 -57.0639 0.940006 409.221
557 1 -58.6651 0.902871 411.189 -58.6651 0.902871 411.189
26 1 -42.9666 1.06528 401.694 -42.9666 1.06528 401.694
294 1 -44.5712 1.0363 403.675 -44.5712 1.0363 403.675
291 1 -46.172 1.00003 405.644 -46.172 1.00003 405.644
576 1 -47.7712 0.962037 407.611 -47.7712 0.962037 407.611
573 1 -49.3711 0.924543 409.578 -49.3711 0.924543 409.578
570 1 -50.9715 0.886456 411.545 -50.9715 0.886456 411.545
854 1 -52.573 0.848088 413.513 -52.573 0.848088 413.513
305 1 -38.4666 0.981742 406.005 -38.4666 0.981742 406.005
589 1 -40.0691 0.94593 407.97 -40.0691 0.94593 407.97
586 1 -41.6715 0.909505 409.937 -41.6715 0.909505 409.937
872 1 -43.2741 0.872548 411.904 -43.2741 0.872548 411.904
599 1 -33.9684 0.892481 410.306 -33.9684 0.892481 410.306
4 1 -56.878 4.03792 402.404 -56.878 4.03792 402.404
268 1 -58.4588 3.9926 404.396 -58.4588 3.9926 404.396
1152 1 -47.282 2.99149 416.822 -47.282 2.99149 416.822
19 1 -47.5826 4.03014 400.833 -47.5826 4.03014 400.833
286 1 -49.1751 3.99468 402.769 -49.1751 3.99468 402.769
282 1 -50.7675 3.96208 404.741 -50.7675 3.96208 404.741
279 1 -52.367 3.93177 406.71 -52.367 3.93177 406.71
565 1 -53.9654 3.89622 408.681 -53.9654 3.89622 408.681
563 1 -55.5661 3.85966 410.651 -55.5661 3.85966 410.651
846 1 -57.1678 3.82249 412.619 -57.1678 3.82249 412.619
32 1 -39.8685 4.02833 401.19 -39.8685 4.02833 401.19
300 1 -41.471 3.99376 403.145 -41.471 3.99376 403.145
297 1 -43.0709 3.95776 405.109 -43.0709 3.95776 405.109
293 1 -44.6711 3.92167 407.075 -44.6711 3.92167 407.075
578 1 -46.2716 3.88453 409.042 -46.2716 3.88453 409.042
575 1 -47.8728 3.84693 411.009 -47.8728 3.84693 411.009
860 1 -49.4743 3.8087 412.977 -49.4743 3.8087 412.977
591 1 -38.5698 3.86772 409.403 -38.5698 3.86772 409.403
588 1 -40.173 3.83127 411.369 -40.173 3.83127 411.369
874 1 -41.7763 3.79425 413.335 -41.7763 3.79425 413.335
10 1 -53.7734 2.53764 401.893 -53.7734 2.53764 401.893
274 1 -55.3741 2.5263 403.847 -55.3741 2.5263 403.847
271 1 -56.9628 2.48491 405.824 -56.9628 2.48491 405.824
558 1 101.739 2.44839 407.792 -58.5623 2.44839 407.792
24 1 -44.4934 2.58556 400.326 -44.4934 2.58556 400.326
21 1 -46.0852 2.54313 402.255 -46.0852 2.54313 402.255
288 1 -47.6757 2.50474 404.215 -47.6757 2.50474 404.215
285 1 -49.2709 2.46491 406.18 -49.2709 2.46491 406.18
571 1 -50.8694 2.42855 408.146 -50.8694 2.42855 408.146
568 1 -52.4686 2.3912 410.114 -52.4686 2.3912 410.114
852 1 -54.0694 2.35354 412.082 -54.0694 2.35354 412.082
848 1 -55.6713 2.31565 414.05 -55.6713 2.31565 414.05
306 1 -38.3638 2.51844 402.609 -38.3638 2.51844 402.609
302 1 -39.9677 2.48636 404.571 -39.9677 2.48636 404.571
299 1 -41.569 2.45121 406.538 -41.569 2.45121 406.538
583 1 -43.1706 2.41528 408.505 -43.1706 2.41528 408.505
581 1 -44.7724 2.37847 410.473 -44.7724 2.37847 410.473
866 1 -46.3746 2.34103 412.44 -46.3746 2.34103 412.44
880 1 -38.6752 2.3258 412.802 -38.6752 2.3258 412.802
312 1 -34.5589 1.7405 404.493 -34.5589 1.7405 404.493
2 1 -58.401 1.153 401.016 -58.401 1.153 401.016
13 1 -51.4606 3.26228 402.315 -51.4606 3.26228 402.315
278 1 -53.0672 3.24026 404.291 -53.0672 3.24026 404.291
275 1 -54.6649 3.20881 406.264 -54.6649 3.20881 406.264
562 1 -56.2633 3.17178 408.236 -56.2633 3.17178 408.236
559 1 -57.8644 3.13534 410.205 -57.8644 3.13534 410.205
1166 1 -38.8912 3.66812 419.598 -38.8912 3.66812 419.598
889 1 -33.273 1.58316 412.722 -33.273 1.58316 412.722
28 1 -42.1688 3.29436 400.74 -42.1688 3.29436 400.74
296 1 -43.773 3.26571 402.696 -43.773 3.26571 402.696
292 1 -45.3728 3.23224 404.661 -45.3728 3.23224 404.661
289 1 -46.9715 3.19491 406.628 -46.9715 3.19491 406.628
574 1 -48.5711 3.15713 408.595 -48.5711 3.15713 408.595
572 1 -50.1712 3.11935 410.562 -50.1712 3.11935 410.562
856 1 -51.7721 3.08102 412.529 -51.7721 3.08102 412.529
303 1 -39.2682 3.17755 406.988 -39.2682 3.17755 406.988
587 1 -40.8704 3.14146 408.954 -40.8704 3.14146 408.954
584 1 -42.4728 3.1048 410.92 -42.4728 3.1048 410.92
870 1 -44.0755 3.0676 412.887 -44.0755 3.0676 412.887
6 1 -56.08 1.83524 401.414 -56.08 1.83524 401.414
270 1 -57.6624 1.79801 403.404 -57.6624 1.79801 403.404
890 1 -32.5785 2.27377 415.138 -32.5785 2.27377 415.138
18 1 -48.3742 1.79929 401.795 -48.3742 1.79929 401.795
284 1 -49.9682 1.76559 403.761 -49.9682 1.76559 403.761
281 1 -51.5675 1.73429 405.728 -51.5675 1.73429 405.728
567 1 -53.1662 1.70086 407.696 -53.1662 1.70086 407.696
564 1 -54.7656 1.66425 409.666 -54.7656 1.66425 409.666
561 1 -56.367 1.62752 411.635 -56.367 1.62752 411.635
844 1 -57.9687 1.58969 413.604 -57.9687 1.58969 413.604
33 1 -39.0789 1.83367 400.237 -39.0789 1.83367 400.237
30 1 -40.677 1.79483 402.158 -40.677 1.79483 402.158
298 1 -42.2714 1.76125 404.123 -42.2714 1.76125 404.123
295 1 -43.8709 1.72606 406.091 -43.8709 1.72606 406.091
580 1 -45.4713 1.6894 408.058 -45.4713 1.6894 408.058
577 1 -47.0722 1.65203 410.026 -47.0722 1.65203 410.026
862 1 -48.6735 1.61415 411.993 -48.6735 1.61415 411.993
590 1 -39.3714 1.63586 410.386 -39.3714 1.63586 410.386
876 1 -40.9746 1.59911 412.352 -40.9746 1.59911 412.352
1163 1 -40.3871 0.745807 418.166 -40.3871 0.745807 418.166
1153 1 -46.5878 3.68003 419.237 -46.5878 3.68003 419.237
311 1 -35.3611 3.93783 405.474 -35.3611 3.93783 405.474
42 1 -33.6607 1.08848 400.162 -33.6607 1.08848 400.162
1135 1 -57.3803 0.730479 419.418 -57.3803 0.730479 419.418
1171 1 -35.7899 2.20064 419.066 -35.7899 2.20064 419.066
1139 1 -55.0836 1.45795 419.865 -55.0836 1.45795 419.865
601 1 -33.1657 3.12367 409.324 -33.1657 3.12367 409.324
313 1 -33.7526 3.97142 403.51 -33.7526 3.97142 403.51
858 1 -50.2753 1.57568 413.961 -50.2753 1.57568 413.961
868 1 -44.877 0.835069 413.871 -44.877 0.835069 413.871
1147 1 -50.3816 0.0310692 417.359 -50.3816 4.45852 417.359
843 1 101.531 3.78399 414.588 -58.7696 3.78399 414.588
593 1 -37.0713 2.36227 410.836 -37.0713 2.36227 410.836
308 1 -36.8634 1.01568 404.041 -36.8634 1.01568 404.041
861 1 -48.7785 0.0699353 415.391 -48.7785 4.49739 415.391
1158 1 -43.4876 2.21305 418.701 -43.4876 2.21305 418.701
884 1 -36.3755 3.05244 413.252 -36.3755 3.05244 413.252
881 1 -37.9801 3.0157 415.217 -37.9801 3.0157 415.217
885 1 -35.6808 3.74263 415.668 -35.6808 3.74263 415.668
859 1 -49.58 2.26428 416.375 -49.58 2.26428 416.375
596 1 -35.4672 2.39795 408.872 -35.4672 2.39795 408.872
879 1 -38.7824 0.783386 416.2 -38.7824 0.783386 416.2
1172 1 -34.9871 0.00542987 418.083 -34.9871 4.43288 418.083
1154 1 -45.7857 1.48568 418.253 -45.7857 1.48568 418.253
887 1 -34.8782 1.54716 414.686 -34.8782 1.54716 414.686
597 1 -34.7709 3.08849 411.288 -34.7709 3.08849 411.288
1161 1 -41.8833 2.25115 416.734 -41.8833 2.25115 416.734
1138 1 -55.7777 0.770372 417.45 -55.7777 0.770372 417.45
1149 1 -48.8856 2.95262 418.79 -48.8856 2.95262 418.79
41 1 -34.4537 3.28147 401.114 -34.4537 3.28147 401.114
888 1 -34.0756 3.77898 413.704 -34.0756 3.77898 413.704
1165 1 -39.5847 2.97839 417.183 -39.5847 2.97839 417.183
1141 1 -53.4806 1.49771 417.896 -53.4806 1.49771 417.896
1145 1 -51.1832 2.22519 418.343 -51.1832 2.22519 418.343
600 1 -33.8624 2.43262 406.909 -33.8624 2.43262 406.909
1148 1 -49.6874 0.719264 419.774 -49.6874 0.719264 419.774
882 1 -37.8732 0.130384 411.819 -37.8732 4.55784 411.819
1157 1 -44.2899 4.40752 419.684 -44.2899 4.40752 419.684
1144 1 -51.9849 4.41918 419.327 -51.9849 4.41918 419.327
602 1 -32.3628 0.927142 408.343 -32.3628 0.927142 408.343
1755 1 -32.2202 2.76757 427.744 -32.2202 2.76757 427.744
1460 1 -36.7035 2.85324 423.446 -36.7035 2.85324 423.446
2308 1 -45.6395 3.30318 437.663 -45.6395 3.30318 437.663
2316 1 -40.9398 1.88123 435.158 -40.9398 1.88123 435.158
2312 1 -43.3443 4.03335 438.11 -43.3443 4.03335 438.11
1464 1 -34.4055 3.58128 423.896 -34.4055 3.58128 423.896
1461 1 -35.9004 0.658421 422.463 -35.9004 0.658421 422.463
2039 1 -34.7436 3.38111 434.088 -34.7436 3.38111 434.088
2613 1 -36.46 1.79698 439.454 -36.46 1.79698 439.454
1467 1 -32.1073 4.3092 424.347 -32.1073 4.3092 424.347
2603 1 -41.8505 2.52926 439.542 -41.8505 2.52926 439.542
1443 1 -45.8943 4.36862 421.651 -45.8943 4.36862 421.651
1748 1 -36.012 3.54342 425.861 -36.012 3.54342 425.861
2023 1 -43.2353 1.15129 434.71 -43.2353 1.15129 434.71
2310 1 -44.1453 1.79892 439.095 -44.1453 1.79892 439.095
1151 1 -47.3898 1.4468 420.221 -47.3898 1.4468 420.221
2303 1 -48.7358 0.338762 438.201 -48.7358 0.338762 438.201
2299 1 -51.0315 4.03656 437.754 -51.0315 4.03656 437.754
2033 1 -37.8421 0.417688 434.623 -37.8421 0.417688 434.623
1433 1 -51.2911 0.679589 421.742 -51.2911 0.679589 421.742
1430 1 -52.8948 0.639362 423.71 -52.8948 0.639362 423.71
1426 1 -54.4983 0.598645 425.679 -54.4983 0.598645 425.679
1713 1 -56.1017 0.557559 427.648 -56.1017 0.557559 427.648
1710 1 -57.7051 0.51626 429.617 -57.7051 0.51626 429.617
2330 1 -32.5608 2.56768 437.936 -32.5608 2.56768 437.936
1160 1 -41.9919 0.707695 420.132 -41.9919 0.707695 420.132
1447 1 -43.5967 0.66904 422.099 -43.5967 0.66904 422.099
1444 1 -45.2015 0.629827 424.066 -45.2015 0.629827 424.066
1730 1 -46.806 0.590051 426.034 -46.806 0.590051 426.034
1727 1 -48.4102 0.549736 428.002 -48.4102 0.549736 428.002
1724 1 -50.014 0.508957 429.97 -50.014 0.508957 429.97
2008 1 -51.6173 0.467833 431.939 -51.6173 0.467833 431.939
2006 1 -53.2203 0.426515 433.908 -53.2203 0.426515 433.908
1458 1 -37.5066 0.620459 424.428 -37.5066 0.620459 424.428
1743 1 -39.1124 0.581874 426.394 -39.1124 0.581874 426.394
1740 1 -40.7179 0.542655 428.36 -40.7179 0.542655 428.36
2026 1 -42.3229 0.502812 430.327 -42.3229 0.502812 430.327
2022 1 -43.9273 0.462391 432.295 -43.9273 0.462391 432.295
2019 1 -45.5309 0.421484 434.263 -45.5309 0.421484 434.263
2309 1 -44.8383 1.11014 436.679 -44.8383 1.11014 436.679
1137 1 -55.8851 3.65157 420.849 -55.8851 3.65157 420.849
1421 1 -57.4881 3.61092 422.818 -57.4881 3.61092 422.818
1439 1 -48.1919 3.64088 421.204 -48.1919 3.64088 421.204
1435 1 -49.7959 3.60117 423.172 -49.7959 3.60117 423.172
1432 1 -51.3997 3.56092 425.141 -51.3997 3.56092 425.141
1719 1 -53.0034 3.52019 427.109 -53.0034 3.52019 427.109
1716 1 -54.6069 3.4791 429.078 -54.6069 3.4791 429.078
2001 1 -56.2102 3.43782 431.047 -56.2102 3.43782 431.047
1998 1 -57.8134 3.39649 433.016 -57.8134 3.39649 433.016
2323 1 -36.3489 3.34128 436.055 -36.3489 3.34128 436.055
1453 1 -40.4965 3.63003 421.564 -40.4965 3.63003 421.564
1450 1 -42.1017 3.59138 423.53 -42.1017 3.59138 423.53
1446 1 -43.7067 3.55215 425.497 -43.7067 3.55215 425.497
1732 1 -45.3114 3.51234 427.465 -45.3114 3.51234 427.465
1729 1 -46.9156 3.47198 429.433 -46.9156 3.47198 429.433
2014 1 -48.5194 3.43116 431.401 -48.5194 3.43116 431.401
2011 1 -50.1227 3.38999 433.37 -50.1227 3.38999 433.37
1745 1 -37.6182 3.5049 427.826 -37.6182 3.5049 427.826
1742 1 -39.224 3.46572 429.792 -39.224 3.46572 429.792
2028 1 -40.8291 3.42587 431.759 -40.8291 3.42587 431.759
2025 1 -42.4334 3.38543 433.726 -42.4334 3.38543 433.726
1427 1 -54.3899 2.1454 422.28 -54.3899 2.1454 422.28
1424 1 -55.9932 2.10471 424.249 -55.9932 2.10471 424.249
1711 1 -57.5965 2.06361 426.218 -57.5965 2.06361 426.218
2322 1 -37.1512 1.10738 437.038 -37.1512 1.10738 437.038
1750 1 -34.5178 2.0391 427.293 -34.5178 2.0391 427.293
1155 1 -45.0921 2.17441 420.668 -45.0921 2.17441 420.668
1441 1 -46.6965 2.13523 422.635 -46.6965 2.13523 422.635
1438 1 -48.3008 2.09549 424.603 -48.3008 2.09549 424.603
1725 1 -49.9049 2.05521 426.571 -49.9049 2.05521 426.571
1722 1 -51.5086 2.01446 428.54 -51.5086 2.01446 428.54
1718 1 -53.1121 1.97337 430.509 -53.1121 1.97337 430.509
2003 1 -54.7153 1.93207 432.478 -54.7153 1.93207 432.478
2000 1 -56.3182 1.89075 434.447 -56.3182 1.89075 434.447
1459 1 -37.3957 2.16318 421.031 -37.3957 2.16318 421.031
1455 1 -39.0014 2.12514 422.996 -39.0014 2.12514 422.996
1452 1 -40.6069 2.08651 424.962 -40.6069 2.08651 424.962
1737 1 -42.2122 2.04728 426.929 -42.2122 2.04728 426.929
1735 1 -43.817 2.00744 428.896 -43.817 2.00744 428.896
2020 1 -45.4213 1.96705 430.864 -45.4213 1.96705 430.864
2017 1 -47.0251 1.92619 432.832 -47.0251 1.92619 432.832
2034 1 -37.7303 1.96153 431.224 -37.7303 1.96153 431.224
2031 1 -39.3355 1.92169 433.191 -39.3355 1.92169 433.191
2029 1 -40.1377 4.11526 434.174 -40.1377 4.11526 434.174
1146 1 -50.4893 2.91322 420.758 -50.4893 2.91322 420.758
1431 1 -52.093 2.87327 422.726 -52.093 2.87327 422.726
1428 1 -53.6965 2.83278 424.695 -53.6965 2.83278 424.695
1715 1 -55.3 2.79187 426.663 -55.3 2.79187 426.663
1712 1 -56.9034 2.75065 428.632 -56.9034 2.75065 428.632
1708 1 -58.5068 2.70931 430.602 -58.5068 2.70931 430.602
1747 1 -36.1243 2.00067 429.258 -36.1243 2.00067 429.258
1449 1 -42.7943 2.90216 421.116 -42.7943 2.90216 421.116
1445 1 -44.3991 2.86323 423.082 -44.3991 2.86323 423.082
1442 1 -46.0038 2.82374 425.05 -46.0038 2.82374 425.05
1728 1 -47.6081 2.78368 427.018 -47.6081 2.78368 427.018
1726 1 -49.2121 2.74312 428.986 -49.2121 2.74312 428.986
2010 1 -50.8157 2.70216 430.955 -50.8157 2.70216 430.955
2007 1 -52.4189 2.66091 432.924 -52.4189 2.66091 432.924
1456 1 -38.3095 2.81497 425.411 -38.3095 2.81497 425.411
1741 1 -39.9153 2.77607 427.377 -39.9153 2.77607 427.377
1738 1 -41.5205 2.73654 429.344 -41.5205 2.73654 429.344
2024 1 -43.1252 2.6964 431.311 -43.1252 2.6964 431.311
2021 1 -44.7292 2.65572 433.279 -44.7292 2.65572 433.279
2035 1 -37.0395 2.65141 433.639 -37.0395 2.65141 433.639
1754 1 -32.9108 2.07685 425.329 -32.9108 2.07685 425.329
1423 1 -56.6866 1.41759 421.834 -56.6866 1.41759 421.834
1420 1 -58.2897 1.37669 423.803 -58.2897 1.37669 423.803
2044 1 -31.6441 1.91638 433.556 -31.6441 1.91638 433.556
1437 1 -48.9939 1.40737 422.188 -48.9939 1.40737 422.188
1434 1 -50.5978 1.36738 424.156 -50.5978 1.36738 424.156
1721 1 -52.2016 1.32688 426.125 -52.2016 1.32688 426.125
1717 1 -53.8052 1.28595 428.094 -53.8052 1.28595 428.094
1714 1 -55.4086 1.24475 430.063 -55.4086 1.24475 430.063
1999 1 -57.0118 1.20342 432.032 -57.0118 1.20342 432.032
1997 1 101.686 1.16214 434.001 -58.6149 1.16214 434.001
1164 1 -39.6938 1.43542 420.581 -39.6938 1.43542 420.581
1451 1 -41.2991 1.39705 422.547 -41.2991 1.39705 422.547
1448 1 -42.9042 1.35811 424.514 -42.9042 1.35811 424.514
1734 1 -44.5091 1.31858 426.481 -44.5091 1.31858 426.481
1731 1 -46.1136 1.2785 428.449 -46.1136 1.2785 428.449
2016 1 -47.7176 1.2379 430.417 -47.7176 1.2379 430.417
2012 1 -49.3211 1.19689 432.385 -49.3211 1.19689 432.385
2009 1 -50.9241 1.1556 434.354 -50.9241 1.1556 434.354
1746 1 -36.8152 1.31052 426.843 -36.8152 1.31052 426.843
1744 1 -38.4212 1.27167 428.809 -38.4212 1.27167 428.809
2030 1 -40.0266 1.23215 430.775 -40.0266 1.23215 430.775
2027 1 -41.6313 1.192 432.743 -41.6313 1.192 432.743
2325 1 -35.5464 1.14756 435.071 -35.5464 1.14756 435.071
1749 1 -35.3211 4.2337 428.276 -35.3211 4.2337 428.276
1425 1 -55.1915 4.33884 423.264 -55.1915 4.33884 423.264
1736 1 -43.0147 4.24116 427.912 -43.0147 4.24116 427.912
1142 1 -52.7865 2.18558 420.311 -52.7865 2.18558 420.311
1720 1 -52.3104 4.20767 429.524 -52.3104 4.20767 429.524
2005 1 -53.9137 4.16646 431.493 -53.9137 4.16646 431.493
2002 1 -55.5168 4.12513 433.462 -55.5168 4.12513 433.462
1169 1 -36.5928 4.39571 420.048 -36.5928 4.39571 420.048
1723 1 -50.7068 4.24861 427.555 -50.7068 4.24861 427.555
1440 1 -47.4987 4.32916 423.619 -47.4987 4.32916 423.619
1733 1 -44.6193 4.20104 429.88 -44.6193 4.20104 429.88
2018 1 -46.2233 4.1604 431.848 -46.2233 4.1604 431.848
2015 1 -47.8267 4.11934 433.816 -47.8267 4.11934 433.816
2036 1 -36.9274 4.19491 430.241 -36.9274 4.19491 430.241
2032 1 -38.533 4.15542 432.207 -38.533 4.15542 432.207
2326 1 -34.856 1.83755 437.487 -34.856 1.83755 437.487
1752 1 -33.7143 4.27178 426.311 -33.7143 4.27178 426.311
1457 1 -38.1985 4.35796 422.013 -38.1985 4.35796 422.013
2043 1 -32.3337 1.22564 431.141 -32.3337 1.22564 431.141
2286 1 -57.9208 1.84955 436.416 -57.9208 1.84955 436.416
2319 1 -38.7547 1.06657 439.006 -38.7547 1.06657 439.006
1436 1 -49.1029 4.28914 425.587 -49.1029 4.28914 425.587
1422 1 -56.7949 4.29793 425.233 -56.7949 4.29793 425.233
1173 1 -34.2942 0.695779 420.499 -34.2942 0.695779 420.499
2293 1 -54.1285 1.07287 438.293 -54.1285 1.07287 438.293
2289 1 -56.4251 0.343955 437.846 -56.4251 0.343955 437.846
2295 1 -52.633 3.99517 439.724 -52.633 3.99517 439.724
1465 1 -33.6022 1.38625 422.914 -33.6022 1.38625 422.914
2315 1 -41.0494 0.336189 438.558 -41.0494 0.336189 438.558
2331 1 -32.4475 4.11071 434.538 -32.4475 4.11071 434.538
2297 1 -51.8323 1.80212 438.739 -51.8323 1.80212 438.739
2324 1 -35.6582 4.03108 438.47 -35.6582 4.03108 438.47
2306 1 -46.4404 1.06872 438.648 -46.4404 1.06872 438.648
2285 1 -58.027 0.30303 439.815 -58.027 0.30303 439.815
1462 1 -35.2088 1.3487 424.878 -35.2088 1.3487 424.878
1751 1 -33.8273 2.72959 429.708 -33.8273 2.72959 429.708
2329 1 -33.2506 1.87738 435.521 -33.2506 1.87738 435.521
2042 1 -33.1372 3.42015 432.123 -33.1372 3.42015 432.123
2041 1 -33.9405 1.187 433.106 -33.9405 1.187 433.106
2593 1 -47.2411 3.26169 439.632 -47.2411 3.26169 439.632
2328 1 -33.3634 0.333916 438.919 -33.3634 0.333916 438.919
2301 1 -49.5365 2.53174 439.186 -49.5365 2.53174 439.186
1466 1 -32.7988 3.61852 421.932 -32.7988 3.61852 421.932
2298 1 -51.7254 3.34863 435.339 -51.7254 3.34863 435.339
2321 1 -37.9531 3.30077 438.022 -37.9531 3.30077 438.022
2313 1 -42.5431 1.84025 437.126 -42.5431 1.84025 437.126
2294 1 -53.3276 3.30725 437.308 -53.3276 3.30725 437.308
2304 1 -47.9348 2.57323 437.216 -47.9348 2.57323 437.216
2300 1 -50.2305 1.84356 436.77 -50.2305 1.84356 436.77
2290 1 -55.6241 2.57826 436.862 -55.6241 2.57826 436.862
2318 1 -39.4463 0.377204 436.59 -39.4463 0.377204 436.59
2327 1 -34.0535 4.07129 436.504 -34.0535 4.07129 436.504
2004 1 -54.0217 2.61956 434.893 -54.0217 2.61956 434.893
2013 1 -48.6281 1.88497 434.801 -48.6281 1.88497 434.801
2288 1 -57.1195 4.08385 435.431 -57.1195 4.08385 435.431
2037 1 -36.2368 0.457512 432.656 -36.2368 0.457512 432.656
1739 1 -41.4096 4.28069 425.945 -41.4096 4.28069 425.945
1753 1 -33.0238 0.534944 428.726 -33.0238 0.534944 428.726
2307 1 -46.3324 2.61461 435.247 -46.3324 2.61461 435.247
2314 1 -41.7415 4.07452 436.142 -41.7415 4.07452 436.142
2040 1 -34.6306 0.496604 430.691 -34.6306 0.496604 430.691
2320 1 -38.6443 2.61125 435.606 -38.6443 2.61125 435.606
2292 1 -54.8229 0.385167 435.877 -54.8229 0.385167 435.877
2311 1 -44.0369 3.34449 435.695 -44.0369 3.34449 435.695
2302 1 -49.4294 4.07801 435.785 -49.4294 4.07801 435.785
2296 1 -52.5266 1.11421 436.323 -52.5266 1.11421 436.323
1463 1 -35.0973 2.8909 421.481 -35.0973 2.8909 421.481
2287 1 -57.2261 2.53717 438.831 -57.2261 2.53717 438.831
2291 1 -54.9294 3.266 439.277 -54.9294 3.266 439.277
2317 1 -40.248 2.57048 437.574 -40.248 2.57048 437.574
2038 1 -35.4338 2.69088 431.673 -35.4338 2.69088 431.673
2305 1 -47.1337 0.380222 436.232 -47.1337 0.380222 436.232
2332 1 -31.758 0.373771 436.953 -31.758 0.373771 436.953
1709 1 -58.3982 4.2567 427.202 -58.3982 4.2567 427.202
1468 1 -31.9954 1.42318 420.95 -31.9954 1.42318 420.95
1454 1 -39.8042 4.31963 423.979 -39.8042 4.31963 423.979
1429 1 -53.5882 4.37928 421.295 -53.5882 4.37928 421.295
1133 1 -58.1817 2.92399 420.403 -58.1817 2.92399 420.403
1175 1 -33.4911 2.92796 419.517 -33.4911 2.92796 419.517
2616 1 -34.2758 0.982743 443.303 -34.2758 0.982743 443.303
2901 1 -35.8766 0.941207 445.272 -35.8766 0.941207 445.272
2907 1 -32.7832 3.90649 444.735 -32.7832 3.90649 444.735
3194 1 -33.6894 0.126212 449.122 -33.6894 0.126212 449.122
2587 1 -50.3371 0.297277 440.17 -50.3371 0.297277 440.17
2597 1 -44.9461 3.99189 440.08 -44.9461 3.99189 440.08
2584 1 -51.9377 0.25594 442.14 -51.9377 0.25594 442.14
2581 1 -53.5376 0.214919 444.109 -53.5376 0.214919 444.109
2868 1 -55.137 0.174371 446.078 -55.137 0.174371 446.078
2865 1 -56.736 0.134446 448.047 -56.736 0.134446 448.047
2601 1 -42.6513 0.294814 440.527 -42.6513 0.294814 440.527
2598 1 -44.2521 0.253277 442.496 -44.2521 0.253277 442.496
2885 1 -45.8517 0.21178 444.466 -45.8517 0.21178 444.466
2882 1 -47.4503 0.170517 446.436 -47.4503 0.170517 446.436
2879 1 -49.0479 0.129671 448.406 -49.0479 0.129671 448.406
2612 1 -36.5694 0.252057 442.855 -36.5694 0.252057 442.855
2898 1 -38.17 0.210488 444.824 -38.17 0.210488 444.824
2895 1 -39.769 0.168835 446.794 -39.769 0.168835 446.794
3180 1 -41.3664 0.12734 448.764 -41.3664 0.12734 448.764
2576 1 -56.5306 3.22505 441.246 -56.5306 3.22505 441.246
2574 1 -58.1316 3.18454 443.215 -58.1316 3.18454 443.215
2589 1 -48.8419 3.22018 441.602 -48.8419 3.22018 441.602
2586 1 -50.4418 3.17883 443.571 -50.4418 3.17883 443.571
2874 1 -52.0411 3.13781 445.541 -52.0411 3.13781 445.541
2871 1 -53.6396 3.09727 447.51 -53.6396 3.09727 447.51
3155 1 -55.2377 3.05738 449.478 -55.2377 3.05738 449.478
2607 1 -39.5559 3.2597 439.99 -39.5559 3.2597 439.99
2604 1 -41.1575 3.21828 441.959 -41.1575 3.21828 441.959
2600 1 -42.7577 3.17671 443.929 -42.7577 3.17671 443.929
2887 1 -44.3567 3.13523 445.899 -44.3567 3.13523 445.899
2884 1 -45.9545 3.09403 447.869 -45.9545 3.09403 447.869
3168 1 -47.5513 3.05332 449.839 -47.5513 3.05332 449.839
2900 1 -36.6764 3.13408 446.256 -36.6764 3.13408 446.256
2897 1 -38.2746 3.09239 448.227 -38.2746 3.09239 448.227
2582 1 -53.4335 1.76082 440.708 -53.4335 1.76082 440.708
2579 1 -55.0342 1.71983 442.677 -55.0342 1.71983 442.677
2866 1 -56.6344 1.67931 444.646 -56.6344 1.67931 444.646
2578 1 -55.7301 1.03175 440.262 -55.7301 1.03175 440.262
2595 1 -45.7466 1.7574 441.064 -45.7466 1.7574 441.064
2592 1 -47.3468 1.71588 443.034 -47.3468 1.71588 443.034
2880 1 -48.9461 1.67456 445.003 -48.9461 1.67456 445.003
2877 1 -50.5445 1.6336 446.973 -50.5445 1.6336 446.973
2873 1 -52.1422 1.59316 448.942 -52.1422 1.59316 448.942
2609 1 -38.0626 1.75585 441.422 -38.0626 1.75585 441.422
2606 1 -39.6637 1.71436 443.391 -39.6637 1.71436 443.391
2892 1 -41.2633 1.67276 445.361 -41.2633 1.67276 445.361
2890 1 -42.8616 1.63127 447.331 -42.8616 1.63127 447.331
3174 1 -44.4586 1.59011 449.302 -44.4586 1.59011 449.302
2618 1 -33.4746 3.21708 442.319 -33.4746 3.21708 442.319
2585 1 -51.1375 2.49031 441.155 -51.1375 2.49031 441.155
2583 1 -52.7377 2.44911 443.124 -52.7377 2.44911 443.124
2870 1 -54.3374 2.4083 445.093 -54.3374 2.4083 445.093
2867 1 -55.9366 2.36805 447.062 -55.9366 2.36805 447.062
2863 1 -57.5354 2.32848 449.031 -57.5354 2.32848 449.031
2599 1 -43.4519 2.48778 441.512 -43.4519 2.48778 441.512
2596 1 -45.052 2.44624 443.481 -45.052 2.44624 443.481
2883 1 -46.6511 2.40483 445.451 -46.6511 2.40483 445.451
2881 1 -48.2492 2.36376 447.421 -48.2492 2.36376 447.421
3164 1 -49.8465 2.32318 449.391 -49.8465 2.32318 449.391
2610 1 -37.3699 2.44503 443.839 -37.3699 2.44503 443.839
2896 1 -38.9697 2.40338 445.809 -38.9697 2.40338 445.809
2893 1 -40.5679 2.36178 447.779 -40.5679 2.36178 447.779
3178 1 -42.1647 2.32045 449.75 -42.1647 2.32045 449.75
2575 1 -57.3311 0.991001 442.231 -57.3311 0.991001 442.231
2591 1 -48.0416 1.0272 440.617 -48.0416 1.0272 440.617
2588 1 -49.642 0.985745 442.587 -49.642 0.985745 442.587
2876 1 -51.2415 0.944539 444.556 -51.2415 0.944539 444.556
2872 1 -52.8404 0.903742 446.525 -52.8404 0.903742 446.525
2869 1 -54.4387 0.86351 448.494 -54.4387 0.86351 448.494
2605 1 -40.3569 1.02529 440.974 -40.3569 1.02529 440.974
2602 1 -41.9577 0.983773 442.944 -41.9577 0.983773 442.944
2889 1 -43.5573 0.942222 444.914 -43.5573 0.942222 444.914
2886 1 -45.1557 0.900856 446.884 -45.1557 0.900856 446.884
3170 1 -46.753 0.859879 448.854 -46.753 0.859879 448.854
2899 1 -37.4757 0.899494 447.241 -37.4757 0.899494 447.241
3184 1 -39.0731 0.85788 449.212 -39.0731 0.85788 449.212
2580 1 -54.2339 3.95401 441.693 -54.2339 3.95401 441.693
2577 1 -55.8343 3.91323 443.662 -55.8343 3.91323 443.662
2864 1 -57.4343 3.87299 445.631 -57.4343 3.87299 445.631
2862 1 -58.2342 1.63938 446.615 -58.2342 1.63938 446.615
2594 1 -46.5468 3.95035 442.049 -46.5468 3.95035 442.049
2590 1 -48.1465 3.90891 444.019 -48.1465 3.90891 444.019
2878 1 -49.7454 3.86775 445.988 -49.7454 3.86775 445.988
2875 1 -51.3434 3.82703 447.958 -51.3434 3.82703 447.958
3159 1 -52.9408 3.7869 449.927 -52.9408 3.7869 449.927
2611 1 -37.2615 3.9902 440.438 -37.2615 3.9902 440.438
2608 1 -38.8633 3.94886 442.407 -38.8633 3.94886 442.407
2894 1 -40.4637 3.90728 444.376 -40.4637 3.90728 444.376
2891 1 -42.0626 3.86571 446.346 -42.0626 3.86571 446.346
2888 1 -43.6602 3.82436 448.316 -43.6602 3.82436 448.316
2904 1 -34.3835 3.86481 446.704 -34.3835 3.86481 446.704
2621 1 -31.871 3.25781 440.351 -31.871 3.25781 440.351
2617 1 -34.1655 2.52741 439.902 -34.1655 2.52741 439.902
2614 1 -35.7685 2.48645 441.87 -35.7685 2.48645 441.87
2908 1 -32.0908 0.168139 447.152 -32.0908 0.168139 447.152
2619 1 -32.673 1.02381 441.335 -32.673 1.02381 441.335
2906 1 -32.8904 2.36091 448.137 -32.8904 2.36091 448.137
2905 1 -33.5836 1.67196 445.72 -33.5836 1.67196 445.72
2620 1 -31.9822 1.71345 443.751 -31.9822 1.71345 443.751
3190 1 -35.9818 3.82302 448.674 -35.9818 3.82302 448.674
2902 1 -35.1829 1.63019 447.689 -35.1829 1.63019 447.689
2903 1 -35.0764 3.17574 444.287 -35.0764 3.17574 444.287
2615 1 -34.9672 0.293281 440.886 -34.9672 0.293281 440.886
2909 1 -31.2907 2.40276 446.168 -31.2907 2.40276 446.168
14 1 -51.4409 0.407531 399.046 -51.4409 4.83498 399.046
7 1 -55.9021 3.36037 398.275 -55.9021 3.36037 398.275
25 1 -43.6916 0.406144 399.329 -43.6916 4.8336 399.329
38 1 -35.9314 0.33159 399.636 -35.9314 4.75904 399.636
23 1 -45.2845 0.351718 401.284 -45.2845 4.77917 401.284
287 1 -48.4732 0.269903 405.196 -48.4732 4.69736 405.196
878 1 -39.4771 0.093603 413.785 -39.4771 4.52106 413.785
579 1 -45.5735 0.146114 411.456 -45.5735 4.57357 411.456
585 1 -42.3696 0.219738 407.522 -42.3696 4.64719 407.522
290 1 -46.8799 0.309891 403.235 -46.8799 4.73734 403.235
11 1 -52.9811 0.345144 400.952 -52.9811 4.7726 400.952
595 1 -36.2693 0.16651 409.854 -36.2693 4.59396 409.854
1134 1 -58.0746 0.0434234 417.003 -58.0746 4.47088 417.003
283 1 -50.0702 0.232704 407.162 -50.0702 4.66016 407.162
582 1 -43.9714 0.183263 409.489 -43.9714 4.61072 409.489
276 1 -54.5828 0.325876 402.878 -54.5828 4.75333 402.878
569 1 -51.6688 0.196186 409.129 -51.6688 4.62364 409.129
847 1 -56.4724 0.0826693 415.034 -56.4724 4.51012 415.034
272 1 -56.1682 0.291468 404.839 -56.1682 4.71892 404.839
3 1 -57.6724 3.36275 400.029 -57.6724 3.36275 400.029
35 1 -37.552 0.317845 401.612 -37.552 4.7453 401.612
598 1 -34.6648 0.201734 407.89 -34.6648 4.62919 407.89
850 1 -54.8703 0.120936 413.066 -54.8703 4.54839 413.066
304 1 -39.1632 0.290547 403.586 -39.1632 4.718 403.586
301 1 -40.7674 0.255582 405.555 -40.7674 4.68303 405.555
269 1 -57.7625 0.253 406.809 -57.7625 4.68045 406.809