ITEM: TIMESTEP
0
ITEM: NUMBER OF ATOMS
4630
ITEM: BOX BOUNDS xy xz yz pp pp pp
-5.5040988501800001e+01 9.8060020350000002e+01 0.0000000000000000e+00
0.0000000000000000e+00 4.4274527100805940e+00 0.0000000000000000e+00
3.8000000000000000e+02 5.0000000000000000e+02 0.0000000000000000e+00
ITEM: ATOMS id type x y z xu yu zu
27 1 -41.5608 2.67344 397.679 -41.5608 2.67344 397.679
36 1 -36.1269 1.9257 397.238 -36.1269 1.9257 397.238
31 1 -39.1642 3.34784 397.9 -39.1642 3.34784 397.9
22 1 -44.6105 4.10199 398.378 -44.6105 4.10199 398.378
20 1 -45.3366 1.88617 399.324 -45.3366 1.88617 399.324
40 1 -33.7326 2.60347 397.465 -33.7326 2.60347 397.465
34 1 -36.8377 4.12651 398.17 -36.8377 4.12651 398.17
17 1 -47.666 1.12461 399.064 -47.666 1.12461 399.064
9 1 -53.0418 1.80216 399.478 -53.0418 1.80216 399.478
43 1 -31.4073 3.38335 397.739 -31.4073 3.38335 397.739
12 1 -50.753 2.6481 399.78 -50.753 2.6481 399.78
29 1 -39.9145 1.12223 398.846 -39.9145 1.12223 398.846
853 1 -51.0385 3.07774 414.357 -51.0385 3.07774 414.357
873 1 -40.235 1.60752 413.455 -40.235 1.60752 413.455
865 1 -44.0532 0.838567 415.228 -44.0532 0.838567 415.228
1174 1 -31.6506 2.28705 415.666 -31.6506 2.28705 415.666
883 1 -34.826 0.869587 413.012 -34.826 0.869587 413.012
863 1 -45.6396 2.34415 413.904 -45.6396 2.34415 413.904
315 1 -31.3063 1.82209 401.093 -31.3063 1.82209 401.093
307 1 -35.8808 3.26148 403.881 -35.8808 3.26148 403.881
1150 1 -45.541 0.796624 417.294 -45.541 0.796624 417.294
855 1 -49.4538 1.57239 415.681 -49.4538 1.57239 415.681
310 1 -34.3929 3.29513 401.825 -34.3929 3.29513 401.825
871 1 -40.9789 3.80126 414.487 -40.9789 3.80126 414.487
16 1 -48.402 3.32756 400.015 -48.402 3.32756 400.015
309 1 -34.2863 1.75721 405.205 -34.2863 1.75721 405.205
1156 1 -42.4673 3.76046 416.552 -42.4673 3.76046 416.552
867 1 -43.3096 3.07283 414.196 -43.3096 3.07283 414.196
1159 1 -40.137 0.0618503 416.844 -40.137 4.4893 416.844
1168 1 -34.7291 3.75287 416.401 -34.7291 3.75287 416.401
1170 1 -33.9835 1.55883 415.37 -33.9835 1.55883 415.37
594 1 -35.0301 3.95352 406.236 -35.0301 3.95352 406.236
37 1 -35.2385 2.593 399.481 -35.2385 2.593 399.481
851 1 -51.7808 0.842466 415.391 -51.7808 0.842466 415.391
857 1 -48.711 3.80752 414.647 -48.711 3.80752 414.647
592 1 -35.7737 1.72182 407.266 -35.7737 1.72182 407.266
849 1 -52.5235 3.03433 416.425 -52.5235 3.03433 416.425
877 1 -37.9032 2.33571 413.749 -37.9032 2.33571 413.749
1143 1 -50.1969 3.76445 416.714 -50.1969 3.76445 416.714
1140 1 -51.6839 3.72027 418.782 -51.6839 3.72027 418.782
845 1 -54.8493 2.30439 416.136 -54.8493 2.30439 416.136
875 1 -38.6476 0.102178 414.78 -38.6476 4.52963 414.78
886 1 -33.3365 0.907702 410.951 -33.3365 0.907702 410.951
891 1 -30.2566 3.86767 410.219 -30.2566 3.86767 410.219
39 1 -33.6538 1.09494 400.792 -33.6538 1.09494 400.792
1177 1 -30.0638 0.782066 416.994 -30.0638 0.782066 416.994
1167 1 -35.4748 1.51926 417.432 -35.4748 1.51926 417.432
8 1 -53.8063 4.06925 400.538 -53.8063 4.06925 400.538
869 1 -41.723 1.56727 415.52 -41.723 1.56727 415.52
1136 1 -54.0098 2.98962 418.494 -54.0098 2.98962 418.494
1162 1 -38.5516 2.98404 418.169 -38.5516 2.98404 418.169
15 1 -49.1484 1.11133 401.09 -49.1484 1.11133 401.09
280 1 -50.6246 1.0809 403.15 -50.6246 1.0809 403.15
277 1 -52.1047 1.05527 405.211 -52.1047 1.05527 405.211
273 1 -53.578 1.01613 407.281 -53.578 1.01613 407.281
560 1 98.0453 0.976215 409.35 -55.0557 0.976215 409.35
26 1 -41.4055 1.11098 400.92 -41.4055 1.11098 400.92
294 1 -42.89 1.08192 402.995 -42.89 1.08192 402.995
291 1 -44.3713 1.04505 405.06 -44.3713 1.04505 405.06
576 1 -45.8513 1.00628 407.124 -45.8513 1.00628 407.124
573 1 -47.3322 0.967401 409.189 -47.3322 0.967401 409.189
570 1 -48.8136 0.926966 411.255 -48.8136 0.926966 411.255
854 1 -50.2965 0.885248 413.323 -50.2965 0.885248 413.323
305 1 -36.6234 1.03056 404.909 -36.6234 1.03056 404.909
589 1 -38.1089 0.994529 406.971 -38.1089 0.994529 406.971
586 1 -39.5942 0.957272 409.034 -39.5942 0.957272 409.034
872 1 -41.0799 0.918877 411.098 -41.0799 0.918877 411.098
599 1 -31.8469 0.944717 408.891 -31.8469 0.944717 408.891
1152 1 -44.797 3.03146 416.261 -44.797 3.03146 416.261
19 1 -46.0872 4.07197 400.363 -46.0872 4.07197 400.363
286 1 -47.5607 4.03767 402.397 -47.5607 4.03767 402.397
282 1 -49.0327 4.00554 404.467 -49.0327 4.00554 404.467
279 1 -50.5115 3.97426 406.534 -50.5115 3.97426 406.534
565 1 -51.9887 3.93647 408.604 -51.9887 3.93647 408.604
563 1 -53.4683 3.8964 410.673 -53.4683 3.8964 410.673
846 1 -54.9498 3.85472 412.743 -54.9498 3.85472 412.743
32 1 -38.3285 4.07189 400.212 -38.3285 4.07189 400.212
300 1 -39.814 4.03939 402.262 -39.814 4.03939 402.262
297 1 -41.2961 4.00417 404.322 -41.2961 4.00417 404.322
293 1 -42.7779 3.96779 406.385 -42.7779 3.96779 406.385
578 1 -44.2601 3.92963 408.449 -44.2601 3.92963 408.449
575 1 -45.743 3.89031 410.514 -45.743 3.89031 410.514
860 1 -47.2264 3.84954 412.58 -47.2264 3.84954 412.58
591 1 -36.5172 3.9172 408.297 -36.5172 3.9172 408.297
588 1 -38.0041 3.87963 410.36 -38.0041 3.87963 410.36
874 1 -39.4912 3.84096 412.423 -39.4912 3.84096 412.423
10 1 -52.2223 2.57792 401.831 -52.2223 2.57792 401.831
274 1 -53.7028 2.56674 403.882 -53.7028 2.56674 403.882
271 1 97.9332 2.52375 405.958 -55.1678 2.52375 405.958
24 1 -43.0212 2.62537 399.654 -43.0212 2.62537 399.654
21 1 -44.4957 2.586 401.679 -44.4957 2.586 401.679
288 1 -45.9669 2.54801 403.737 -45.9669 2.54801 403.737
285 1 -47.4428 2.50827 405.799 -47.4428 2.50827 405.799
571 1 -48.9218 2.47103 407.863 -48.9218 2.47103 407.863
568 1 -50.4011 2.43152 409.93 -50.4011 2.43152 409.93
852 1 -51.8822 2.39049 411.998 -51.8822 2.39049 411.998
848 1 -53.3651 2.34825 414.067 -53.3651 2.34825 414.067
306 1 -36.7321 2.56587 401.525 -36.7321 2.56587 401.525
302 1 -38.2181 2.53399 403.582 -38.2181 2.53399 403.582
299 1 -39.7016 2.49892 405.645 -39.7016 2.49892 405.645
583 1 -41.1854 2.46237 407.709 -41.1854 2.46237 407.709
581 1 -42.6695 2.42428 409.773 -42.6695 2.42428 409.773
866 1 -44.1542 2.38491 411.838 -44.1542 2.38491 411.838
880 1 -36.4147 2.37461 411.686 -36.4147 2.37461 411.686
312 1 -32.7977 1.79088 403.147 -32.7977 1.79088 403.147
13 1 -49.8803 3.30588 402.099 -49.8803 3.30588 402.099
278 1 -51.3648 3.28276 404.172 -51.3648 3.28276 404.172
275 1 -52.8405 3.24984 406.243 -52.8405 3.24984 406.243
562 1 -54.3161 3.2099 408.315 -54.3161 3.2099 408.315
1166 1 -36.2206 3.71291 418.463 -36.2206 3.71291 418.463
889 1 -31.002 1.63542 411.248 -31.002 1.63542 411.248
28 1 -40.6652 3.33965 399.919 -40.6652 3.33965 399.919
296 1 -42.1513 3.31116 401.968 -42.1513 3.31116 401.968
292 1 -43.6317 3.27759 404.029 -43.6317 3.27759 404.029
289 1 -45.1111 3.23961 406.093 -45.1111 3.23961 406.093
574 1 -46.5916 3.20079 408.157 -46.5916 3.20079 408.157
572 1 -48.0728 3.16117 410.222 -48.0728 3.16117 410.222
856 1 -49.5548 3.11998 412.289 -49.5548 3.11998 412.289
303 1 -37.3665 3.2263 405.94 -37.3665 3.2263 405.94
587 1 -38.8516 3.18971 408.002 -38.8516 3.18971 408.002
584 1 -40.3371 3.15192 410.066 -40.3371 3.15192 410.066
870 1 -41.823 3.11297 412.13 -41.823 3.11297 412.13
6 1 -54.5642 1.87607 401.509 -54.5642 1.87607 401.509
890 1 -30.1588 2.32552 413.606 -30.1588 2.32552 413.606
18 1 -46.819 1.84194 401.377 -46.819 1.84194 401.377
284 1 -48.2932 1.80911 403.438 -48.2932 1.80911 403.438
281 1 -49.7723 1.77739 405.503 -49.7723 1.77739 405.503
567 1 -51.2501 1.7424 407.57 -51.2501 1.7424 407.57
564 1 -52.7283 1.70288 409.639 -52.7283 1.70288 409.639
561 1 -54.209 1.6621 411.708 -54.209 1.6621 411.708
33 1 -37.5972 1.87581 399.207 -37.5972 1.87581 399.207
30 1 -39.0791 1.83934 401.226 -39.0791 1.83934 401.226
298 1 -40.5558 1.80746 403.288 -40.5558 1.80746 403.288
295 1 -42.037 1.77246 405.353 -42.037 1.77246 405.353
580 1 -43.5189 1.73509 407.417 -43.5189 1.73509 407.417
577 1 -45.0015 1.69636 409.481 -45.0015 1.69636 409.481
862 1 -46.4846 1.65636 411.547 -46.4846 1.65636 411.547
590 1 -37.2606 1.68485 409.328 -37.2606 1.68485 409.328
876 1 -38.7476 1.64671 411.391 -38.7476 1.64671 411.391
1163 1 -37.8062 0.790601 417.138 -37.8062 0.790601 417.138
1153 1 -43.9565 3.71861 418.618 -43.9565 3.71861 418.618
311 1 -33.5415 3.98828 404.176 -33.5415 3.98828 404.176
42 1 -32.1664 1.13245 398.775 -32.1664 1.13245 398.775
1135 1 -54.7535 0.753086 419.528 -54.7535 0.753086 419.528
1171 1 -33.1428 2.24781 417.727 -33.1428 2.24781 417.727
1139 1 -52.4279 1.48404 419.817 -52.4279 1.48404 419.817
601 1 -31.102 3.17647 407.861 -31.102 3.17647 407.861
313 1 -32.0498 4.0219 402.116 -32.0498 4.0219 402.116
858 1 -47.9686 1.61493 413.613 -47.9686 1.61493 413.613
868 1 -42.5662 0.879336 413.163 -42.5662 0.879336 413.163
1147 1 -47.8694 0.0669833 417.004 -47.8694 4.49444 417.004
593 1 -34.9265 2.41249 409.624 -34.9265 2.41249 409.624
308 1 -35.1371 1.06418 402.849 -35.1371 1.06418 402.849
861 1 -46.3826 0.109556 414.937 -46.3826 4.53701 414.937
1158 1 -40.882 2.25505 417.877 -40.882 2.25505 417.877
884 1 -34.0813 3.1025 411.981 -34.0813 3.1025 411.981
881 1 -35.5709 3.0639 414.043 -35.5709 3.0639 414.043
885 1 -33.238 3.79204 414.339 -33.238 3.79204 414.339
859 1 -47.1258 2.30213 415.971 -47.1258 2.30213 415.971
596 1 -33.4382 2.44916 407.563 -33.4382 2.44916 407.563
879 1 -36.3158 0.830531 415.075 -36.3158 0.830531 415.075
1172 1 -32.3967 0.0537925 416.697 -32.3967 4.48125 416.697
1154 1 -43.2118 1.52594 417.585 -43.2118 1.52594 417.585
887 1 -32.4926 1.59758 413.309 -32.4926 1.59758 413.309
597 1 -32.5918 3.14008 409.921 -32.5918 3.14008 409.921
1161 1 -39.3923 2.29586 415.812 -39.3923 2.29586 415.812
1138 1 -53.2665 0.79841 417.459 -53.2665 0.79841 417.459
1149 1 -46.2852 2.98897 418.328 -46.2852 2.98897 418.328
41 1 -32.9013 3.32725 399.779 -32.9013 3.32725 399.779
888 1 -31.7473 3.83035 412.278 -31.7473 3.83035 412.278
1165 1 -37.0609 3.0244 416.106 -37.0609 3.0244 416.106
1141 1 -50.9403 1.52877 417.748 -50.9403 1.52877 417.748
1145 1 -48.6132 2.25902 418.038 -48.6132 2.25902 418.038
600 1 -31.9493 2.48442 405.504 -31.9493 2.48442 405.504
1148 1 -47.0297 0.753613 419.361 -47.0297 0.753613 419.361
882 1 -35.6706 0.179953 410.655 -35.6706 4.60741 410.655
1157 1 -41.6271 0.0205575 418.909 -41.6271 4.44801 418.909
1144 1 -49.3572 0.0233491 419.072 -49.3572 4.4508 419.072
602 1 -30.3567 0.980445 406.832 -30.3567 0.980445 406.832
1755 1 -29.0487 2.80964 426.124 -29.0487 2.80964 426.124
1460 1 -33.7982 2.89647 422.145 -33.7982 2.89647 422.145
2308 1 -41.9385 3.32753 436.883 -41.9385 3.32753 436.883
2316 1 -37.3688 1.91384 434.075 -37.3688 1.91384 434.075
2312 1 -39.6128 4.0611 437.172 -39.6128 4.0611 437.172
1464 1 -31.4669 3.62546 422.441 -31.4669 3.62546 422.441
1461 1 -33.051 0.702909 421.115 -33.051 0.702909 421.115
2039 1 -31.2139 3.41853 432.599 -31.2139 3.41853 432.599
2613 1 -32.6337 1.83239 438.044 -32.6337 1.83239 438.044
1467 1 -29.1352 4.35422 422.738 -29.1352 4.35422 422.738
2603 1 -38.0347 2.55833 438.494 -38.0347 2.55833 438.494
1443 1 -43.118 4.40577 420.974 -43.118 4.40577 420.974
1748 1 -32.9624 3.58516 424.502 -32.9624 3.58516 424.502
2023 1 -39.6959 1.18143 433.784 -39.6959 1.18143 433.784
2310 1 -40.3601 1.82462 438.205 -40.3601 1.82462 438.205
1151 1 -44.7014 1.48357 419.651 -44.7014 1.48357 419.651
2303 1 -45.0106 0.356832 437.628 -45.0106 0.356832 437.628
2299 1 -47.3359 4.05047 437.341 -47.3359 4.05047 437.341
2033 1 -34.2922 0.453273 433.335 -34.2922 0.453273 433.335
1433 1 -48.5194 0.709585 421.428 -48.5194 0.709585 421.428
1430 1 -50.0099 0.664609 423.496 -50.0099 0.664609 423.496
1426 1 -51.5013 0.618824 425.564 -51.5013 0.618824 425.564
1713 1 -52.9934 0.572428 427.632 -52.9934 0.572428 427.632
1710 1 -54.4861 0.52565 429.7 -54.4861 0.52565 429.7
2330 1 -28.8057 2.60496 436.278 -28.8057 2.60496 436.278
1160 1 -39.2972 0.749806 419.201 -39.2972 0.749806 419.201
1447 1 -40.7889 0.708141 421.266 -40.7889 0.708141 421.266
1444 1 -42.2813 0.665598 423.33 -42.2813 0.665598 423.33
1730 1 -43.7742 0.622165 425.396 -43.7742 0.622165 425.396
1727 1 -45.2676 0.577846 427.462 -45.2676 0.577846 427.462
1724 1 -46.7611 0.532686 429.529 -46.7611 0.532686 429.529
2008 1 -48.2547 0.486779 431.596 -48.2547 0.486779 431.596
2006 1 -49.748 0.440269 433.664 -49.748 0.440269 433.664
1458 1 -34.5455 0.662421 423.176 -34.5455 0.662421 423.176
1743 1 -36.0405 0.62129 425.238 -36.0405 0.62129 425.238
1740 1 -37.536 0.579444 427.301 -37.536 0.579444 427.301
2026 1 -39.0317 0.536792 429.365 -39.0317 0.536792 429.365
2022 1 -40.5274 0.493241 431.429 -40.5274 0.493241 431.429
2019 1 -42.0227 0.448723 433.495 -42.0227 0.448723 433.495
2309 1 -41.1913 1.13662 435.85 -41.1913 1.13662 435.85
1137 1 -53.1722 3.67501 420.851 -53.1722 3.67501 420.851
1421 1 -54.6617 3.62884 422.92 -54.6617 3.62884 422.92
1439 1 -45.4465 3.67574 420.684 -45.4465 3.67574 420.684
1435 1 -46.9374 3.63189 422.751 -46.9374 3.63189 422.751
1432 1 -48.4289 3.58712 424.818 -48.4289 3.58712 424.818
1719 1 -49.9211 3.54154 426.885 -49.9211 3.54154 426.885
1716 1 -51.4138 3.49532 428.953 -51.4138 3.49532 428.953
2001 1 -52.9068 3.44866 431.021 -52.9068 3.44866 431.021
1998 1 -54.3999 3.40176 433.089 -54.3999 3.40176 433.089
2323 1 -32.7131 3.37738 434.659 -32.7131 3.37738 434.659
1453 1 -37.7128 3.67218 420.526 -37.7128 3.67218 420.526
1450 1 -39.2057 3.63065 422.59 -39.2057 3.63065 422.59
1446 1 -40.6991 3.58831 424.654 -40.6991 3.58831 424.654
1732 1 -42.193 3.54511 426.719 -42.193 3.54511 426.719
1729 1 -43.6872 3.50102 428.784 -43.6872 3.50102 428.784
2014 1 -45.1814 3.45607 430.851 -45.1814 3.45607 430.851
2011 1 -46.6753 3.4103 432.918 -46.6753 3.4103 432.918
1745 1 -34.4585 3.54428 426.563 -34.4585 3.54428 426.563
1742 1 -35.9549 3.50274 428.625 -35.9549 3.50274 428.625
2028 1 -37.4515 3.46041 430.688 -37.4515 3.46041 430.688
2025 1 -38.9479 3.41716 432.752 -38.9479 3.41716 432.752
1427 1 -51.591 2.16972 422.173 -51.591 2.16972 422.173
1424 1 -53.0815 2.12374 424.242 -53.0815 2.12374 424.242
1711 1 -54.573 2.07716 426.31 -54.573 2.07716 426.31
2322 1 -33.4625 1.14271 435.69 -33.4625 1.14271 435.69
1750 1 -31.3798 2.08052 425.828 -31.3798 2.08052 425.828
1155 1 -42.3725 2.21328 419.942 -42.3725 2.21328 419.942
1441 1 -43.8637 2.17056 422.007 -43.8637 2.17056 422.007
1438 1 -45.3556 2.12692 424.073 -45.3556 2.12692 424.073
1725 1 -46.8481 2.08237 426.14 -46.8481 2.08237 426.14
1722 1 -48.341 2.037 428.207 -48.341 2.037 428.207
1718 1 -49.8342 1.99095 430.275 -49.8342 1.99095 430.275
2003 1 -51.3274 1.94437 432.343 -51.3274 1.94437 432.343
2000 1 -52.8204 1.89747 434.411 -52.8204 1.89747 434.411
1459 1 -34.6356 2.20787 419.789 -34.6356 2.20787 419.789
1455 1 -36.1289 2.16724 421.851 -36.1289 2.16724 421.851
1452 1 -37.6229 2.12589 423.914 -37.6229 2.12589 423.914
1737 1 -39.1174 2.08378 425.977 -39.1174 2.08378 425.977
1735 1 -40.6122 2.04083 428.042 -40.6122 2.04083 428.042
2020 1 -42.1071 1.99701 430.107 -42.1071 1.99701 430.107
2017 1 -43.6019 1.95226 432.173 -43.6019 1.95226 432.173
2034 1 -34.3742 1.99873 429.949 -34.3742 1.99873 429.949
2031 1 -35.8717 1.95676 432.012 -35.8717 1.95676 432.012
2029 1 -36.6203 4.14916 433.043 -36.6203 4.14916 433.043
1146 1 -47.7744 2.94545 420.395 -47.7744 2.94545 420.395
1431 1 -49.2645 2.90093 422.462 -49.2645 2.90093 422.462
1428 1 -50.7555 2.85553 424.53 -50.7555 2.85553 424.53
1715 1 -52.2472 2.80942 426.598 -52.2472 2.80942 426.598
1712 1 -53.7397 2.7628 428.666 -53.7397 2.7628 428.666
1747 1 -32.8768 2.03993 427.888 -32.8768 2.03993 427.888
1449 1 -40.0429 2.94281 420.233 -40.0429 2.94281 420.233
1445 1 -41.535 2.90071 422.298 -41.535 2.90071 422.298
1442 1 -43.0277 2.85772 424.363 -43.0277 2.85772 424.363
1728 1 -44.5208 2.81384 426.429 -44.5208 2.81384 426.429
1726 1 -46.0143 2.76909 428.495 -46.0143 2.76909 428.495
2010 1 -47.5079 2.72354 430.562 -47.5079 2.72354 430.562
2007 1 -49.0014 2.67731 432.63 -49.0014 2.67731 432.63
1456 1 -35.2929 2.85567 424.207 -35.2929 2.85567 424.207
1741 1 -36.7882 2.81419 426.27 -36.7882 2.81419 426.27
1738 1 -38.2838 2.77195 428.333 -38.2838 2.77195 428.333
2024 1 -39.7796 2.72886 430.397 -39.7796 2.72886 430.397
2021 1 -41.2751 2.68483 432.462 -41.2751 2.68483 432.462
2035 1 -33.5431 2.6879 432.304 -33.5431 2.6879 432.304
1754 1 -29.8832 2.12061 423.768 -29.8832 2.12061 423.768
1423 1 -53.9168 1.43829 421.885 -53.9168 1.43829 421.885
2044 1 -28.1342 1.95481 431.865 -28.1342 1.95481 431.865
1437 1 -46.1919 1.4402 421.717 -46.1919 1.4402 421.717
1434 1 -47.6831 1.39589 423.784 -47.6831 1.39589 423.784
1721 1 -49.1749 1.3507 425.852 -49.1749 1.3507 425.852
1717 1 -50.6674 1.30477 427.919 -50.6674 1.30477 427.919
1714 1 -52.1602 1.2583 429.987 -52.1602 1.2583 429.987
1999 1 -53.6533 1.2115 432.055 -53.6533 1.2115 432.055
1164 1 -36.9667 1.47892 419.494 -36.9667 1.47892 419.494
1451 1 -38.4592 1.43779 421.558 -38.4592 1.43779 421.558
1448 1 -39.9523 1.39586 423.622 -39.9523 1.39586 423.622
1734 1 -41.446 1.35309 425.686 -41.446 1.35309 425.686
1731 1 -42.9401 1.30945 427.751 -42.9401 1.30945 427.751
2016 1 -44.4343 1.26493 429.817 -44.4343 1.26493 429.817
2012 1 -45.9284 1.21956 431.884 -45.9284 1.21956 431.884
2009 1 -47.4221 1.17342 433.951 -47.4221 1.17342 433.951
1746 1 -33.7104 1.35107 425.532 -33.7104 1.35107 425.532
1744 1 -35.2066 1.30987 427.594 -35.2066 1.30987 427.594
2030 1 -36.7032 1.26796 429.656 -36.7032 1.26796 429.656
2027 1 -38.1998 1.22518 431.72 -38.1998 1.22518 431.72
2325 1 -31.9636 1.18434 433.629 -31.9636 1.18434 433.629
1749 1 -32.1282 4.27402 426.858 -32.1282 4.27402 426.858
1425 1 -52.3361 4.36054 423.208 -52.3361 4.36054 423.208
1736 1 -39.8648 4.27614 427.009 -39.8648 4.27614 427.009
1142 1 -50.1016 2.21487 420.105 -50.1016 2.21487 420.105
1720 1 -49.0876 4.22778 429.241 -49.0876 4.22778 429.241
2005 1 -50.5808 4.18144 431.309 -50.5808 4.18144 431.309
2002 1 -52.0739 4.13467 433.377 -52.0739 4.13467 433.377
1169 1 -33.8891 0.0142001 418.758 -33.8891 4.44165 418.758
1723 1 -47.5945 4.27351 427.174 -47.5945 4.27351 427.174
1440 1 -44.6096 4.36258 423.04 -44.6096 4.36258 423.04
1733 1 -41.3597 4.23276 429.074 -41.3597 4.23276 429.074
2018 1 -42.8546 4.18848 431.139 -42.8546 4.18848 431.139
2015 1 -44.3491 4.14328 433.206 -44.3491 4.14328 433.206
2036 1 -33.6255 4.23315 428.919 -33.6255 4.23315 428.919
2032 1 -35.123 4.19158 430.98 -35.123 4.19158 430.98
2326 1 -31.1344 1.87415 435.983 -31.1344 1.87415 435.983
1752 1 -30.6314 4.31435 424.798 -30.6314 4.31435 424.798
1457 1 -35.3822 4.40137 420.82 -35.3822 4.40137 420.82
2043 1 -28.9651 1.26523 429.51 -28.9651 1.26523 429.51
2286 1 -54.313 1.85048 436.479 -54.313 1.85048 436.479
2319 1 -34.9605 1.09992 437.752 -34.9605 1.09992 437.752
1436 1 -46.1018 4.31848 425.107 -46.1018 4.31848 425.107
1422 1 -53.8271 4.31423 425.276 -53.8271 4.31423 425.276
1173 1 -31.5572 0.742791 419.054 -31.5572 0.742791 419.054
2293 1 -50.4073 1.07953 438.087 -50.4073 1.07953 438.087
2289 1 -52.733 0.346242 437.8 -52.733 0.346242 437.8
2295 1 -48.8275 4.00321 439.409 -48.8275 4.00321 439.409
1465 1 -30.7194 1.4317 421.411 -30.7194 1.4317 421.411
2315 1 -37.2868 0.366964 437.462 -37.2868 0.366964 437.462
2331 1 -28.8843 4.14863 432.894 -28.8843 4.14863 432.894
2297 1 -48.0819 1.81316 438.375 -48.0819 1.81316 438.375
2324 1 -31.8842 4.06715 437.014 -31.8842 4.06715 437.014
2306 1 -42.6854 1.09074 437.916 -42.6854 1.09074 437.916
2285 1 -54.2242 0.299204 439.869 -54.2242 0.299204 439.869
1462 1 -32.2146 1.39165 423.471 -32.2146 1.39165 423.471
1751 1 -30.5465 2.7696 428.184 -30.5465 2.7696 428.184
2329 1 -29.6344 1.91484 433.924 -29.6344 1.91484 433.924
2042 1 -29.7147 3.45895 430.539 -29.7147 3.45895 430.539
2041 1 -30.4643 1.22509 431.569 -30.4643 1.22509 431.569
2593 1 -43.4318 3.28116 438.95 -43.4318 3.28116 438.95
2328 1 -29.5562 0.371019 437.308 -29.5562 0.371019 437.308
2301 1 -45.7567 2.54707 438.662 -45.7567 2.54707 438.662
1466 1 -29.972 3.66525 420.381 -29.972 3.66525 420.381
2298 1 -48.1687 3.36384 434.985 -48.1687 3.36384 434.985
2321 1 -34.2117 3.3352 436.721 -34.2117 3.3352 436.721
2313 1 -38.8651 1.86982 436.139 -38.8651 1.86982 436.139
2294 1 -49.6613 3.31687 437.053 -49.6613 3.31687 437.053
2304 1 -44.264 2.59386 436.594 -44.264 2.59386 436.594
2300 1 -46.5896 1.86021 436.307 -46.5896 1.86021 436.307
2290 1 -51.987 2.58353 436.766 -51.987 2.58353 436.766
2318 1 -35.79 0.410711 435.398 -35.79 0.410711 435.398
2327 1 -30.3844 4.10833 434.953 -30.3844 4.10833 434.953
2004 1 -50.4945 2.63057 434.698 -50.4945 2.63057 434.698
2013 1 -45.0962 1.90663 434.239 -45.0962 1.90663 434.239
2288 1 -53.5667 4.0877 435.445 -53.5667 4.0877 435.445
2037 1 -32.7939 0.494855 431.274 -32.7939 0.494855 431.274
1739 1 -38.3701 4.31866 424.946 -38.3701 4.31866 424.946
1753 1 -29.7975 0.575941 427.154 -29.7975 0.575941 427.154
2307 1 -42.77 2.63982 434.528 -42.77 2.63982 434.528
2314 1 -38.1171 4.1057 435.107 -38.1171 4.1057 435.107
2040 1 -31.2955 0.535678 429.213 -31.2955 0.535678 429.213
2320 1 -35.0412 2.64585 434.366 -35.0412 2.64585 434.366
2292 1 -51.2409 0.393347 435.732 -51.2409 0.393347 435.732
2311 1 -40.4437 3.37289 434.817 -40.4437 3.37289 434.817
2302 1 -45.843 4.09724 435.273 -45.843 4.09724 435.273
2296 1 -48.9151 1.12668 436.019 -48.9151 1.12668 436.019
1463 1 -32.304 2.93665 420.084 -32.304 2.93665 420.084
2287 1 -53.4787 2.53642 438.834 -53.4787 2.53642 438.834
2291 1 -51.1529 3.26962 439.122 -51.1529 3.26962 439.122
2317 1 -36.5386 2.60272 436.43 -36.5386 2.60272 436.43
2038 1 -32.0447 2.72907 430.244 -32.0447 2.72907 430.244
2305 1 -43.5172 0.403229 435.561 -43.5172 0.403229 435.561
2332 1 -28.0552 0.411218 435.249 -28.0552 0.411218 435.249
1468 1 -29.2247 1.47124 419.351 -29.2247 1.47124 419.351
1454 1 -36.8758 4.36038 422.882 -36.8758 4.36038 422.882
1429 1 -50.8461 4.40613 421.139 -50.8461 4.40613 421.139
1175 1 -30.8104 2.97623 418.024 -30.8104 2.97623 418.024
2616 1 -30.229 1.01988 441.722 -30.229 1.01988 441.722
2901 1 -31.7265 0.976425 443.785 -31.7265 0.976425 443.785
2907 1 -28.6529 3.9451 443.046 -28.6529 3.9451 443.046
3194 1 -29.3235 0.163818 447.464 -29.3235 0.163818 447.464
2587 1 -46.5025 0.309703 439.696 -46.5025 0.309703 439.696
2597 1 -41.107 4.01531 439.238 -41.107 4.01531 439.238
2584 1 -47.9927 0.26211 441.765 -47.9927 0.26211 441.765
2581 1 -49.4812 0.214398 443.835 -49.4812 0.214398 443.835
2868 1 -50.9679 0.166955 445.904 -50.9679 0.166955 445.904
2865 1 -52.453 0.120177 447.973 -52.453 0.120177 447.973
2601 1 -38.782 0.321909 439.527 -38.782 0.321909 439.527
2598 1 -40.2751 0.27556 441.594 -40.2751 0.27556 441.594
2885 1 -41.7656 0.228112 443.663 -41.7656 0.228112 443.663
2882 1 -43.2532 0.179939 445.733 -43.2532 0.179939 445.733
2879 1 -44.738 0.131553 447.804 -44.738 0.131553 447.804
2612 1 -32.5546 0.286889 441.43 -32.5546 0.286889 441.43
2898 1 -34.0503 0.242248 443.495 -34.0503 0.242248 443.495
2895 1 -35.5426 0.195725 445.562 -35.5426 0.195725 445.562
3180 1 -37.0309 0.147583 447.631 -37.0309 0.147583 447.631
2576 1 -52.6433 3.22238 441.19 -52.6433 3.22238 441.19
2574 1 -54.1325 3.17544 443.259 -54.1325 3.17544 443.259
2589 1 -44.9233 3.23394 441.018 -44.9233 3.23394 441.018
2586 1 -46.4128 3.18617 443.088 -46.4128 3.18617 443.088
2874 1 -47.9001 3.13822 445.157 -47.9001 3.13822 445.157
2871 1 -49.3854 3.09054 447.227 -49.3854 3.09054 447.227
3155 1 -50.8689 3.04357 449.297 -50.8689 3.04357 449.297
2607 1 -35.709 3.29174 438.784 -35.709 3.29174 438.784
2604 1 -37.2044 3.24683 440.85 -37.2044 3.24683 440.85
2600 1 -38.6972 3.20045 442.917 -38.6972 3.20045 442.917
2887 1 -40.1871 3.15283 444.986 -40.1871 3.15283 444.986
2884 1 -41.6737 3.1044 447.056 -41.6737 3.1044 447.056
3168 1 -43.157 3.05575 449.127 -43.157 3.05575 449.127
2900 1 -32.4741 3.16763 444.818 -32.4741 3.16763 444.818
2897 1 -33.966 3.12098 446.885 -33.966 3.12098 446.885
2582 1 -49.5728 1.76575 440.443 -49.5728 1.76575 440.443
2579 1 -51.0623 1.71827 442.512 -51.0623 1.71827 442.512
2866 1 -52.5503 1.67109 444.582 -52.5503 1.67109 444.582
2578 1 -51.8983 1.03225 440.156 -51.8983 1.03225 440.156
2595 1 -41.8533 1.77827 440.272 -41.8533 1.77827 440.272
2592 1 -43.3443 1.73095 442.341 -43.3443 1.73095 442.341
2880 1 -44.8329 1.68298 444.41 -44.8329 1.68298 444.41
2877 1 -46.3191 1.63482 446.48 -46.3191 1.63482 446.48
2873 1 -47.8028 1.58695 448.551 -47.8028 1.58695 448.551
2609 1 -34.1315 1.78924 440.107 -34.1315 1.78924 440.107
2606 1 -35.6271 1.74446 442.172 -35.6271 1.74446 442.172
2892 1 -37.1197 1.69803 444.239 -37.1197 1.69803 444.239
2890 1 -38.6088 1.65017 446.308 -38.6088 1.65017 446.308
3174 1 -40.0942 1.60139 448.379 -40.0942 1.60139 448.379
2618 1 -29.4792 3.25461 440.692 -29.4792 3.25461 440.692
2585 1 -47.2478 2.49967 440.731 -47.2478 2.49967 440.731
2583 1 -48.7372 2.45197 442.8 -48.7372 2.45197 442.8
2870 1 -50.2248 2.40434 444.869 -50.2248 2.40434 444.869
2867 1 -51.7106 2.35719 446.939 -51.7106 2.35719 446.939
2863 1 -53.1951 2.31088 449.008 -53.1951 2.31088 449.008
2599 1 -39.5289 2.51261 440.561 -39.5289 2.51261 440.561
2596 1 -41.0207 2.46568 442.628 -41.0207 2.46568 442.628
2883 1 -42.5098 2.41781 444.698 -42.5098 2.41781 444.698
2881 1 -43.996 2.36946 446.768 -43.996 2.36946 446.768
3164 1 -45.4794 2.32119 448.839 -45.4794 2.32119 448.839
2610 1 -33.3028 2.47853 442.462 -33.3028 2.47853 442.462
2896 1 -34.7969 2.43294 444.528 -34.7969 2.43294 444.528
2893 1 -36.2873 2.38555 446.596 -36.2873 2.38555 446.596
3178 1 -37.7735 2.3368 448.667 -37.7735 2.3368 448.667
2575 1 -53.3881 0.985124 442.225 -53.3881 0.985124 442.225
2591 1 -44.1778 1.04392 439.984 -44.1778 1.04392 439.984
2588 1 -45.6683 0.996377 442.053 -45.6683 0.996377 442.053
2876 1 -47.1567 0.948463 444.122 -47.1567 0.948463 444.122
2872 1 -48.643 0.900593 446.192 -48.643 0.900593 446.192
2869 1 -50.1274 0.853215 448.262 -50.1274 0.853215 448.262
2605 1 -36.4569 1.05575 439.817 -36.4569 1.05575 439.817
2602 1 -37.9511 1.01009 441.883 -37.9511 1.01009 441.883
2889 1 -39.4425 0.96305 443.951 -39.4425 0.96305 443.951
2886 1 -40.9308 0.914955 446.021 -40.9308 0.914955 446.021
3170 1 -42.4157 0.866329 448.092 -42.4157 0.866329 448.092
2899 1 -33.2206 0.930837 445.851 -33.2206 0.930837 445.851
3184 1 -34.7103 0.883215 447.919 -34.7103 0.883215 447.919
2580 1 -50.3177 3.95572 441.478 -50.3177 3.95572 441.478
2577 1 -51.8065 3.90835 443.547 -51.8065 3.90835 443.547
2864 1 -53.2938 3.86144 445.616 -53.2938 3.86144 445.616
2862 1 -54.0369 1.62453 446.65 -54.0369 1.62453 446.65
2594 1 -42.5991 3.96844 441.306 -42.5991 3.96844 441.306
2590 1 -44.0889 3.92075 443.375 -44.0889 3.92075 443.375
2878 1 -45.5763 3.87262 445.445 -45.5763 3.87262 445.445
2875 1 -47.0612 3.82454 447.515 -47.0612 3.82454 447.515
3159 1 -48.5439 3.77701 449.586 -48.5439 3.77701 449.586
2611 1 -33.3828 4.02473 439.076 -33.3828 4.02473 439.076
2608 1 -34.8796 3.98079 441.139 -34.8796 3.98079 441.139
2894 1 -36.3738 3.93517 443.205 -36.3738 3.93517 443.205
2891 1 -37.8647 3.88798 445.273 -37.8647 3.88798 445.273
2888 1 -39.352 3.83958 447.344 -39.352 3.83958 447.344
2904 1 -30.1509 3.9019 445.108 -30.1509 3.9019 445.108
2621 1 -27.9784 3.29543 438.633 -27.9784 3.29543 438.633
2617 1 -30.3063 2.56426 438.338 -30.3063 2.56426 438.338
2614 1 -31.8057 2.52224 440.399 -31.8057 2.52224 440.399
2908 1 -27.8272 0.208121 445.4 -27.8272 0.208121 445.4
2619 1 -28.729 1.06147 439.662 -28.729 1.06147 439.662
2906 1 -28.5759 2.40004 446.432 -28.5759 2.40004 446.432
2905 1 -29.4023 1.71006 444.077 -29.4023 1.71006 444.077
2620 1 -27.9028 1.75216 442.016 -27.9028 1.75216 442.016
3190 1 -31.6448 3.85628 447.174 -31.6448 3.85628 447.174
2902 1 -30.8984 1.66567 446.141 -30.8984 1.66567 446.141
2903 1 -30.9781 3.21214 442.753 -30.9781 3.21214 442.753
2615 1 -31.0562 0.329712 439.368 -31.0562 0.329712 439.368
2909 1 -27.0775 2.44299 444.37 -27.0775 2.44299 444.37
14 1 -50.061 0.44732 398.843 -50.061 4.87477 398.843
7 1 -54.589 3.3973 398.369 -54.589 3.3973 398.369
25 1 -42.2781 0.446187 398.612 -42.2781 4.87364 398.612
38 1 -34.4804 0.37791 398.41 -34.4804 4.80536 398.41
23 1 -43.7537 0.393606 400.662 -43.7537 4.82106 400.662
287 1 -46.7049 0.313238 404.766 -46.7049 4.74069 404.766
878 1 -37.1589 0.141551 412.717 -37.1589 4.569 412.717
579 1 -43.4118 0.191056 410.806 -43.4118 4.61851 410.806
585 1 -40.4433 0.267218 406.677 -40.4433 4.69467 406.677
290 1 -45.2309 0.352762 402.708 -45.2309 4.78021 402.708
11 1 -51.4882 0.38485 400.839 -51.4882 4.8123 400.839
595 1 -34.1824 0.217278 408.593 -34.1824 4.64473 408.593
283 1 -48.1824 0.275758 406.83 -48.1824 4.70321 406.83
582 1 -41.9274 0.229795 408.741 -41.9274 4.65725 408.741
276 1 -52.9708 0.366391 402.865 -52.9708 4.79384 402.865
569 1 -49.6613 0.237746 408.896 -49.6613 4.6652 408.896
847 1 -54.107 0.112799 415.101 -54.107 4.54025 415.101
272 1 -54.4351 0.331393 404.923 -54.4351 4.75885 404.923
35 1 -35.9806 0.365825 400.48 -35.9806 4.79328 400.48
598 1 -32.6937 0.253307 406.534 -32.6937 4.68076 406.534
850 1 -52.6234 0.155821 413.032 -52.6234 4.58327 413.032
304 1 -37.4726 0.338189 402.55 -37.4726 4.76564 402.55
301 1 -38.9589 0.303369 404.614 -38.9589 4.73082 404.614
314 1 -31.2039 0.287969 404.475 -31.2039 4.71542 404.475
864 1 -44.8968 0.150985 412.871 -44.8968 4.57844 412.871
566 1 -51.1413 0.197369 410.964 -51.1413 4.62482 410.964
1176 1 -30.9047 0.0926594 414.636 -30.9047 4.52011 414.636
85 1 -5.87962 1.20093 394.422 -5.87962 1.20093 394.422
58 1 -22.8701 1.1184 396.612 -22.8701 1.1184 396.612
45 1 -30.6955 1.18263 396.807 -30.6955 1.18263 396.807
49 1 -28.3014 1.8604 397.037 -28.3014 1.8604 397.037
72 1 -14.404 3.38819 395.541 -14.404 3.38819 395.541
80 1 -8.94022 2.62408 395.104 -8.94022 2.62408 395.104
75 1 -12.012 4.07007 395.775 -12.012 4.07007 395.775
83 1 -6.60604 3.39988 395.349 -6.60604 3.39988 395.349
52 1 -25.9765 2.6407 397.312 -25.9765 2.6407 397.312
61 1 -20.5456 1.8998 396.89 -20.5456 1.8998 396.89
63 1 -19.8324 4.12676 395.959 -19.8324 4.12676 395.959
87 1 -4.23992 4.0838 395.597 -4.23992 4.0838 395.597
70 1 -15.115 1.16136 396.472 -15.115 1.16136 396.472
47 1 -29.0503 4.06222 397.981 -29.0503 4.06222 397.981
912 1 -16.988 1.57739 413.057 -16.988 1.57739 413.057