ITEM: TIMESTEP
0
ITEM: NUMBER OF ATOMS
4630
ITEM: BOX BOUNDS xy xz yz pp pp pp
-6.0640988501799995e+01 1.0366002035000000e+02 0.0000000000000000e+00
0.0000000000000000e+00 4.4274527100805940e+00 0.0000000000000000e+00
3.8000000000000000e+02 5.0000000000000000e+02 0.0000000000000000e+00
ITEM: ATOMS id type x y z xu yu zu
27 1 -43.7537 2.55238 398.734 -43.7537 2.55238 398.734
36 1 -38.3104 1.80543 398.786 -38.3104 1.80543 398.786
31 1 -41.3878 3.22615 399.171 -41.3878 3.22615 399.171
22 1 -46.8508 3.9801 399.154 -46.8508 3.9801 399.154
20 1 -47.6584 1.76452 400.03 -47.6584 1.76452 400.03
40 1 -35.9476 2.48181 399.228 -35.9476 2.48181 399.228
34 1 -39.0987 4.00649 399.652 -39.0987 4.00649 399.652
17 1 -49.9542 1.00289 399.56 -49.9542 1.00289 399.56
9 1 -55.3483 1.68158 399.483 -55.3483 1.68158 399.483
43 1 -33.6614 3.2635 399.712 -33.6614 3.2635 399.712
12 1 -53.0945 2.52627 399.991 -53.0945 2.52627 399.991
5 1 -57.7073 1.05399 399.035 -57.7073 1.05399 399.035
29 1 -42.219 1.00088 400.045 -42.219 1.00088 400.045
853 1 -54.6784 2.98911 414.468 -54.6784 2.98911 414.468
873 1 -43.8289 1.50731 414.57 -43.8289 1.50731 414.57
865 1 -47.7866 0.745863 415.984 -47.7866 0.745863 415.984
1174 1 -35.4705 2.18898 417.559 -35.4705 2.18898 417.559
883 1 -38.4037 0.766097 414.625 -38.4037 0.766097 414.625
863 1 -49.2541 2.24869 414.519 -49.2541 2.24869 414.519
315 1 -33.8584 1.70092 403.065 -33.8584 1.70092 403.065
307 1 -38.6553 3.14277 405.43 -38.6553 3.14277 405.43
1150 1 -49.4467 0.711887 417.904 -49.4467 0.711887 417.904
855 1 -53.2111 1.48657 415.933 -53.2111 1.48657 415.933
310 1 -36.9931 3.17497 403.516 -36.9931 3.17497 403.516
871 1 -44.6591 3.70426 415.53 -44.6591 3.70426 415.53
16 1 -50.7739 3.20597 400.44 -50.7739 3.20597 400.44
309 1 -37.1857 1.63959 406.895 -37.1857 1.63959 406.895
1156 1 -46.3194 3.67053 417.45 -46.3194 3.67053 417.45
867 1 -46.9566 2.97649 415.024 -46.9566 2.97649 415.024
1159 1 -44.0223 4.39853 417.956 -44.0223 4.39853 417.956
1168 1 -38.5981 3.65794 418.01 -38.5981 3.65794 418.01
1170 1 -37.7676 1.46088 417.051 -37.7676 1.46088 417.051
594 1 -38.0165 3.83728 407.854 -38.0165 3.83728 407.854
37 1 -37.6252 2.47167 401.102 -37.6252 2.47167 401.102
851 1 -55.5082 0.758539 415.428 -55.5082 0.758539 415.428
857 1 -52.3813 3.7173 414.974 -52.3813 3.7173 414.974
592 1 -38.847 1.60718 408.813 -38.847 1.60718 408.813
849 1 -56.338 2.95539 416.388 -56.338 2.95539 416.388
877 1 -41.5315 2.23519 415.077 -41.5315 2.23519 415.077
1143 1 -54.0409 3.6833 416.893 -54.0409 3.6833 416.893
1140 1 -55.7004 3.64918 418.814 -55.7004 3.64918 418.814
845 1 -58.6351 2.22792 415.883 -58.6351 2.22792 415.883
875 1 -42.3618 4.43217 416.036 -42.3618 4.43217 416.036
886 1 -36.7426 0.799181 412.706 -36.7426 0.799181 412.706
891 1 -33.614 3.75676 412.257 -33.614 3.75676 412.257
39 1 -36.1665 0.97462 402.553 -36.1665 0.97462 402.553
1177 1 -34.0043 0.686889 419.027 -34.0043 0.686889 419.027
1167 1 -39.4285 1.42748 418.969 -39.4285 1.42748 418.969
8 1 -56.2068 3.94867 400.467 -56.2068 3.94867 400.467
869 1 -45.4893 1.4737 416.49 -45.4893 1.4737 416.49
1136 1 -57.9973 2.92138 418.309 -57.9973 2.92138 418.309
1162 1 -42.5557 2.89609 419.422 -42.5557 2.89609 419.422
15 1 -51.6152 0.990396 401.442 -51.6152 0.990396 401.442
280 1 -53.2737 0.962117 403.357 -53.2737 0.962117 403.357
277 1 -54.9366 0.940555 405.271 -54.9366 0.940555 405.271
273 1 -56.5925 0.907101 407.193 -56.5925 0.907101 407.193
560 1 -58.2515 0.874312 409.114 -58.2515 0.874312 409.114
557 1 -59.9114 0.841544 411.034 -59.9114 0.841544 411.034
26 1 -43.8891 0.989927 401.977 -43.8891 0.989927 401.977
294 1 -45.553 0.962359 403.91 -45.553 0.962359 403.91
291 1 -47.2129 0.928119 405.831 -47.2129 0.928119 405.831
576 1 -48.8715 0.893327 407.75 -48.8715 0.893327 407.75
573 1 -50.5305 0.859816 409.669 -50.5305 0.859816 409.669
570 1 -52.1894 0.826037 411.588 -52.1894 0.826037 411.588
854 1 -53.8486 0.792212 413.508 -53.8486 0.792212 413.508
305 1 -39.4852 0.912912 406.387 -39.4852 0.912912 406.387
589 1 -41.1456 0.879795 408.306 -41.1456 0.879795 408.306
586 1 -42.8058 0.846486 410.225 -42.8058 0.846486 410.225
872 1 -44.4662 0.813099 412.145 -44.4662 0.813099 412.145
599 1 -35.0811 0.831867 410.789 -35.0811 0.831867 410.789
1132 1 -60.2943 2.19388 417.804 -60.2943 2.19388 417.804
4 1 -57.8844 3.95957 402.326 -57.8844 3.95957 402.326
268 1 -59.5268 3.91621 404.268 -59.5268 3.91621 404.268
1152 1 -48.6167 2.94262 416.944 -48.6167 2.94262 416.944
19 1 -48.5 3.95062 400.997 -48.5 3.95062 400.997
286 1 -50.1518 3.91771 402.888 -50.1518 3.91771 402.888
282 1 -51.8056 3.88849 404.813 -51.8056 3.88849 404.813
279 1 -53.4659 3.86181 406.733 -53.4659 3.86181 406.733
565 1 -55.1239 3.83011 408.656 -55.1239 3.83011 408.656
563 1 -56.7832 3.79753 410.577 -56.7832 3.79753 410.577
846 1 -58.4432 3.76486 412.498 -58.4432 3.76486 412.498
32 1 -40.7645 3.9515 401.551 -40.7645 3.9515 401.551
300 1 -42.4257 3.91955 403.46 -42.4257 3.91955 403.46
297 1 -44.0845 3.88611 405.377 -44.0845 3.88611 405.377
293 1 -45.7435 3.85277 407.296 -45.7435 3.85277 407.296
578 1 -47.4028 3.81895 409.215 -47.4028 3.81895 409.215
575 1 -49.0623 3.78527 411.134 -49.0623 3.78527 411.134
860 1 -50.7218 3.75134 413.054 -50.7218 3.75134 413.054
591 1 -39.6775 3.80439 409.772 -39.6775 3.80439 409.772
588 1 -41.3381 3.77116 411.691 -41.3381 3.77116 411.691
874 1 -42.9986 3.73777 413.611 -42.9986 3.73777 413.611
10 1 -54.7467 2.45746 401.898 -54.7467 2.45746 401.898
274 1 -56.4112 2.44982 403.802 -56.4112 2.44982 403.802
271 1 -58.061 2.41208 405.73 -58.061 2.41208 405.73
558 1 -59.7199 2.37884 407.65 -59.7199 2.37884 407.65
24 1 -45.3838 2.50449 400.57 -45.3838 2.50449 400.57
21 1 -47.0342 2.46556 402.453 -47.0342 2.46556 402.453
288 1 -48.6845 2.42951 404.368 -48.6845 2.42951 404.368
285 1 -50.34 2.39323 406.285 -50.34 2.39323 406.285
571 1 -51.9986 2.36098 408.203 -51.9986 2.36098 408.203
568 1 -53.6568 2.32788 410.122 -53.6568 2.32788 410.122
852 1 -55.3159 2.29458 412.043 -55.3159 2.29458 412.043
848 1 -56.9756 2.26143 413.963 -56.9756 2.26143 413.963
306 1 -39.2929 2.44541 403.004 -39.2929 2.44541 403.004
302 1 -40.9546 2.41505 404.919 -40.9546 2.41505 404.919
299 1 -42.6142 2.38239 406.84 -42.6142 2.38239 406.84
583 1 -44.2741 2.34937 408.76 -44.2741 2.34937 408.76
581 1 -45.9342 2.316 410.68 -45.9342 2.316 410.68
866 1 -47.5942 2.28249 412.599 -47.5942 2.28249 412.599
880 1 -39.8707 2.26857 413.158 -39.8707 2.26857 413.158
312 1 -35.5233 1.67113 404.977 -35.5233 1.67113 404.977
2 1 -59.3738 1.06638 400.897 -59.3738 1.06638 400.897
13 1 -52.4363 3.18577 402.379 -52.4363 3.18577 402.379
278 1 -54.1047 3.16574 404.306 -54.1047 3.16574 404.306
275 1 -55.7636 3.13779 406.229 -55.7636 3.13779 406.229
562 1 -57.4213 3.10422 408.153 -57.4213 3.10422 408.153
559 1 -59.0814 3.07172 410.074 -59.0814 3.07172 410.074
1166 1 -40.2589 3.62442 419.929 -40.2589 3.62442 419.929
889 1 -34.4449 1.5268 413.215 -34.4449 1.5268 413.215
28 1 -43.0627 3.21831 401.047 -43.0627 3.21831 401.047
296 1 -44.7255 3.19078 402.954 -44.7255 3.19078 402.954
292 1 -46.3842 3.1592 404.872 -46.3842 3.1592 404.872
289 1 -48.0421 3.1245 406.791 -48.0421 3.1245 406.791
574 1 -49.701 3.09036 408.71 -49.701 3.09036 408.71
572 1 -51.3599 3.05675 410.628 -51.3599 3.05675 410.628
856 1 -53.0189 3.02284 412.548 -53.0189 3.02284 412.548
303 1 -40.3158 3.11 407.347 -40.3158 3.11 407.347
587 1 -41.9758 3.07682 409.266 -41.9758 3.07682 409.266
584 1 -43.636 3.04351 411.185 -43.636 3.04351 411.185
870 1 -45.2963 3.01009 413.105 -45.2963 3.01009 413.105
6 1 -57.0533 1.75578 401.363 -57.0533 1.75578 401.363
270 1 -58.7003 1.72094 403.3 -58.7003 1.72094 403.3
267 1 -60.3568 1.68533 405.225 -60.3568 1.68533 405.225
890 1 -33.809 2.22184 415.642 -33.809 2.22184 415.642
18 1 -49.3206 1.72113 401.94 -49.3206 1.72113 401.94
284 1 -50.9757 1.69043 403.857 -50.9757 1.69043 403.857
281 1 -52.6362 1.66244 405.776 -52.6362 1.66244 405.776
567 1 -54.2951 1.63283 407.696 -54.2951 1.63283 407.696
564 1 -55.9535 1.60008 409.617 -55.9535 1.60008 409.617
561 1 -57.6133 1.56755 411.538 -57.6133 1.56755 411.538
844 1 -59.2731 1.53457 413.458 -59.2731 1.53457 413.458
33 1 -39.947 1.75563 400.618 -39.947 1.75563 400.618
30 1 -41.6019 1.71913 402.495 -41.6019 1.71913 402.495
298 1 -43.2554 1.68834 404.414 -43.2554 1.68834 404.414
295 1 -44.9139 1.65574 406.335 -44.9139 1.65574 406.335
580 1 -46.5731 1.62207 408.255 -46.5731 1.62207 408.255
577 1 -48.2326 1.58835 410.175 -48.2326 1.58835 410.175
862 1 -49.8921 1.5546 412.094 -49.8921 1.5546 412.094
590 1 -40.5078 1.57409 410.732 -40.5078 1.57409 410.732
876 1 -42.1683 1.54076 412.651 -42.1683 1.54076 412.651
1163 1 -41.7254 0.699218 418.462 -41.7254 0.699218 418.462
1153 1 -47.9796 3.63657 419.369 -47.9796 3.63657 419.369
311 1 -36.3539 3.86948 405.936 -36.3539 3.86948 405.936
42 1 -34.5083 1.01248 400.679 -34.5083 1.01248 400.679
1135 1 -58.8268 0.690504 419.269 -58.8268 0.690504 419.269
1171 1 -37.1318 2.1558 419.477 -37.1318 2.1558 419.477
1139 1 -56.53 1.41829 419.774 -56.53 1.41829 419.774
601 1 -34.2502 3.06172 409.83 -34.2502 3.06172 409.83
313 1 -34.6883 3.9013 404.018 -34.6883 3.9013 404.018
858 1 -51.5515 1.52058 414.014 -51.5515 1.52058 414.014
868 1 -46.1265 0.779604 414.065 -46.1265 0.779604 414.065
1147 1 -51.7438 4.41135 417.399 -51.7438 4.41135 417.399
843 1 -60.1029 3.73153 414.418 -60.1029 3.73153 414.418
593 1 -38.2099 2.30175 411.239 -38.2099 2.30175 411.239
308 1 -37.8241 0.944605 404.469 -37.8241 0.944605 404.469
861 1 -50.084 0.0179676 415.479 -50.084 4.44542 415.479
1158 1 -44.8525 2.1679 418.915 -44.8525 2.1679 418.915
884 1 -37.5732 2.9964 413.666 -37.5732 2.9964 413.666
881 1 -39.2342 2.96318 415.584 -39.2342 2.96318 415.584
885 1 -36.937 3.6912 416.092 -36.937 3.6912 416.092
859 1 -50.9139 2.21466 416.439 -50.9139 2.21466 416.439
596 1 -36.5488 2.33455 409.321 -36.5488 2.33455 409.321
879 1 -40.0646 0.732761 416.543 -40.0646 0.732761 416.543
1172 1 -36.3012 4.38615 418.518 -36.3012 4.38615 418.518
1154 1 -47.1495 1.43985 418.41 -47.1495 1.43985 418.41
887 1 -36.1064 1.49401 415.133 -36.1064 1.49401 415.133
597 1 -35.912 3.02931 411.748 -35.912 3.02931 411.748
1161 1 -43.1921 2.20165 416.996 -43.1921 2.20165 416.996
1138 1 -57.1677 0.724703 417.348 -57.1677 0.724703 417.348
1149 1 -50.2766 2.90856 418.864 -50.2766 2.90856 418.864
41 1 -35.3284 3.20687 401.611 -35.3284 3.20687 401.611
888 1 -35.2757 3.72418 414.174 -35.2757 3.72418 414.174
1165 1 -40.895 2.92974 417.503 -40.895 2.92974 417.503
1141 1 -54.8707 1.45253 417.854 -54.8707 1.45253 417.854
1145 1 -52.5737 2.18055 418.359 -52.5737 2.18055 418.359
600 1 -34.8869 2.36674 407.405 -34.8869 2.36674 407.405
1148 1 -51.1065 0.677734 419.824 -51.1065 0.677734 419.824
882 1 -39.0404 0.0714668 412.199 -39.0404 4.49892 412.199
1157 1 -45.6827 4.36466 419.875 -45.6827 4.36466 419.875
1144 1 -53.4034 4.37716 419.319 -53.4034 4.37716 419.319
602 1 -33.4189 0.863964 408.872 -33.4189 0.863964 408.872
1131 1 -60.4855 0.655888 421.19 -60.4855 0.655888 421.19
1755 1 -33.7604 2.73979 428.224 -33.7604 2.73979 428.224
1460 1 -38.1571 2.81728 423.822 -38.1571 2.81728 423.822
2308 1 -47.4735 3.30363 437.769 -47.4735 3.30363 437.769
2316 1 -42.693 1.87252 435.394 -42.693 1.87252 435.394
2312 1 -45.1789 4.03334 438.275 -45.1789 4.03334 438.275
1464 1 -35.8609 3.54603 424.33 -35.8609 3.54603 424.33
1461 1 -37.3267 0.62038 422.863 -37.3267 0.62038 422.863
2039 1 -36.4453 3.36681 434.488 -36.4453 3.36681 434.488
2613 1 -38.2961 1.79554 439.795 -38.2961 1.79554 439.795
1467 1 -33.5647 4.27478 424.838 -33.5647 4.27478 424.838
2603 1 -43.7127 2.53175 439.742 -43.7127 2.53175 439.742
1443 1 -47.3427 4.33057 421.795 -47.3427 4.33057 421.795
1748 1 -37.5217 3.51233 426.248 -37.5217 3.51233 426.248
2023 1 -44.9878 1.14291 434.887 -44.9878 1.14291 434.887
2310 1 -46.0071 1.80191 439.236 -46.0071 1.80191 439.236
1151 1 -48.8095 1.40578 420.329 -48.8095 1.40578 420.329
2303 1 -50.5967 0.342598 438.224 -50.5967 0.342598 438.224
2299 1 -52.8918 4.04068 437.718 -52.8918 4.04068 437.718
2033 1 -39.5693 0.405994 434.94 -39.5693 0.405994 434.94
1433 1 -52.766 0.643371 421.744 -52.766 0.643371 421.744
1430 1 -54.425 0.608752 423.665 -54.425 0.608752 423.665
1426 1 -56.0837 0.573862 425.586 -56.0837 0.573862 425.586
1713 1 -57.7419 0.538722 427.507 -57.7419 0.538722 427.507
1710 1 -59.3997 0.503382 429.429 -59.3997 0.503382 429.429
2330 1 -34.3445 2.56059 438.382 -34.3445 2.56059 438.382
1160 1 -43.3859 0.665451 420.381 -43.3859 0.665451 420.381
1447 1 -45.0461 0.631445 422.301 -45.0461 0.631445 422.301
1444 1 -46.706 0.597188 424.221 -46.706 0.597188 424.221
1730 1 -48.3654 0.562668 426.141 -48.3654 0.562668 426.141
1727 1 -50.0242 0.527878 428.062 -50.0242 0.527878 428.062
1724 1 -51.6826 0.492836 429.983 -51.6826 0.492836 429.983
2008 1 -53.3404 0.45758 431.904 -53.3404 0.45758 431.904
2006 1 -54.9978 0.422169 433.825 -54.9978 0.422169 433.825
1458 1 -38.9874 0.586646 424.781 -38.9874 0.586646 424.781
1743 1 -40.6477 0.552593 426.7 -40.6477 0.552593 426.7
1740 1 -42.3074 0.518226 428.62 -42.3074 0.518226 428.62
2026 1 -43.9665 0.483558 430.54 -43.9665 0.483558 430.54
2022 1 -45.625 0.448614 432.46 -45.625 0.448614 432.46
2019 1 -47.2828 0.413436 434.381 -47.2828 0.413436 434.381
2309 1 -46.6451 1.10761 436.808 -46.6451 1.10761 436.808
1137 1 -57.3595 3.61479 420.734 -57.3595 3.61479 420.734
1421 1 -59.0182 3.58007 422.655 -59.0182 3.58007 422.655
1439 1 -49.6394 3.60239 421.29 -49.6394 3.60239 421.29
1435 1 -51.2989 3.56798 423.21 -51.2989 3.56798 423.21
1432 1 -52.958 3.5333 425.13 -52.958 3.5333 425.13
1719 1 -54.6165 3.49835 427.051 -54.6165 3.49835 427.051
1716 1 -56.2746 3.46317 428.973 -56.2746 3.46317 428.973
2001 1 -57.9323 3.42781 430.894 -57.9323 3.42781 430.894
1998 1 -59.5897 3.39234 432.816 -59.5897 3.39234 432.816
2323 1 -38.1039 3.33201 436.407 -38.1039 3.33201 436.407
1453 1 -41.9195 3.59065 421.848 -41.9195 3.59065 421.848
1450 1 -43.5798 3.55661 423.767 -43.5798 3.55661 423.767
1446 1 -45.2396 3.52231 425.687 -45.2396 3.52231 425.687
1732 1 -46.8989 3.48774 427.607 -46.8989 3.48774 427.607
1729 1 -48.5576 3.45289 429.528 -48.5576 3.45289 429.528
2014 1 -50.2158 3.4178 431.449 -50.2158 3.4178 431.449
2011 1 -51.8735 3.3825 433.37 -51.8735 3.3825 433.37
1745 1 -39.1819 3.47828 428.167 -39.1819 3.47828 428.167
1742 1 -40.8416 3.4439 430.086 -40.8416 3.4439 430.086
2028 1 -42.5006 3.40919 432.006 -42.5006 3.40919 432.006
2025 1 -44.1589 3.37421 433.927 -44.1589 3.37421 433.927
1427 1 -55.8922 2.11173 422.2 -55.8922 2.11173 422.2
1424 1 -57.5509 2.07692 424.121 -57.5509 2.07692 424.121
1711 1 -59.2091 2.04182 426.042 -59.2091 2.04182 426.042
2322 1 -38.9329 1.10078 437.368 -38.9329 1.10078 437.368
1750 1 -36.0561 2.0107 427.715 -36.0561 2.0107 427.715
1155 1 -46.5127 2.13392 420.835 -46.5127 2.13392 420.835
1441 1 -48.1726 2.09971 422.755 -48.1726 2.09971 422.755
1438 1 -49.832 2.06524 424.675 -49.832 2.06524 424.675
1725 1 -51.491 2.03051 426.596 -51.491 2.03051 426.596
1722 1 -53.1495 1.99552 428.517 -53.1495 1.99552 428.517
1718 1 -54.8075 1.9603 430.438 -54.8075 1.9603 430.438
2003 1 -56.465 1.92491 432.36 -56.465 1.92491 432.36
2000 1 -58.1222 1.88943 434.282 -58.1222 1.88943 434.282
1459 1 -38.7927 2.12232 421.396 -38.7927 2.12232 421.396
1455 1 -40.4534 2.08856 423.314 -40.4534 2.08856 423.314
1452 1 -42.1136 2.05452 425.234 -42.1136 2.05452 425.234
1737 1 -43.7734 2.02018 427.153 -43.7734 2.02018 427.153
1735 1 -45.4326 1.98555 429.073 -45.4326 1.98555 429.073
2020 1 -47.0912 1.95065 430.994 -47.0912 1.95065 430.994
2017 1 -48.7492 1.91551 432.915 -48.7492 1.91551 432.915
2034 1 -39.376 1.94226 431.553 -39.376 1.94226 431.553
2031 1 -41.0349 1.90753 433.473 -41.0349 1.90753 433.473
2029 1 -41.864 4.10378 434.433 -41.864 4.10378 434.433
1146 1 -51.9363 2.87431 420.784 -51.9363 2.87431 420.784
1431 1 -53.5956 2.83982 422.705 -53.5956 2.83982 422.705
1428 1 -55.2544 2.80507 424.625 -55.2544 2.80507 424.625
1715 1 -56.9128 2.77005 426.547 -56.9128 2.77005 426.547
1712 1 -58.5708 2.7348 428.468 -58.5708 2.7348 428.468
1708 1 -60.2284 2.69938 430.39 -60.2284 2.69938 430.39
1747 1 -37.7164 1.97667 429.634 -37.7164 1.97667 429.634
1449 1 -44.2161 2.8622 421.341 -44.2161 2.8622 421.341
1445 1 -45.8761 2.82807 423.261 -45.8761 2.82807 423.261
1442 1 -47.5357 2.79369 425.181 -47.5357 2.79369 425.181
1728 1 -49.1949 2.75903 427.101 -49.1949 2.75903 427.101
1726 1 -50.8535 2.72411 429.022 -50.8535 2.72411 429.022
2010 1 -52.5116 2.68896 430.943 -52.5116 2.68896 430.943
2007 1 -54.1692 2.65362 432.865 -54.1692 2.65362 432.865
1456 1 -39.8176 2.78339 425.741 -39.8176 2.78339 425.741
1741 1 -41.4776 2.74918 427.66 -41.4776 2.74918 427.66
1738 1 -43.137 2.71466 429.58 -43.137 2.71466 429.58
2024 1 -44.7958 2.67984 431.5 -44.7958 2.67984 431.5
2021 1 -46.454 2.64478 433.421 -46.454 2.64478 433.421
2035 1 -38.74 2.63714 433.98 -38.74 2.63714 433.98
1754 1 -34.3953 2.04436 425.797 -34.3953 2.04436 425.797
1423 1 -58.1889 1.38374 421.695 -58.1889 1.38374 421.695
1420 1 -59.8474 1.34886 423.616 -59.8474 1.34886 423.616
2044 1 -33.3208 1.89998 434.036 -33.3208 1.89998 434.036
1437 1 -50.4692 1.37149 422.25 -50.4692 1.37149 422.25
1434 1 -52.1285 1.33695 424.17 -52.1285 1.33695 424.17
1721 1 -53.7873 1.30213 426.091 -53.7873 1.30213 426.091
1717 1 -55.4456 1.26706 428.012 -55.4456 1.26706 428.012
1714 1 -57.1035 1.23179 429.933 -57.1035 1.23179 429.933
1999 1 -58.761 1.19636 431.855 -58.761 1.19636 431.855
1997 1 -60.4182 1.16085 433.777 -60.4182 1.16085 433.777
1164 1 -41.0893 1.39384 420.888 -41.0893 1.39384 420.888
1451 1 -42.7497 1.35994 422.807 -42.7497 1.35994 422.807
1448 1 -44.4097 1.32577 424.727 -44.4097 1.32577 424.727
1734 1 -46.0693 1.29133 426.647 -46.0693 1.29133 426.647
1731 1 -47.7283 1.25662 428.567 -47.7283 1.25662 428.567
2016 1 -49.3868 1.22165 430.488 -49.3868 1.22165 430.488
2012 1 -51.0447 1.18644 432.409 -51.0447 1.18644 432.409
2009 1 -52.7021 1.15107 434.33 -52.7021 1.15107 434.33
1746 1 -38.3519 1.28163 427.208 -38.3519 1.28163 427.208
1744 1 -40.0118 1.24741 429.127 -40.0118 1.24741 429.127
2030 1 -41.6712 1.21286 431.046 -41.6712 1.21286 431.046
2027 1 -43.3298 1.17801 432.967 -43.3298 1.17801 432.967
2325 1 -37.2747 1.13573 435.448 -37.2747 1.13573 435.448
1749 1 -36.8863 4.20746 428.675 -36.8863 4.20746 428.675
1425 1 -56.7216 4.30809 423.16 -56.7216 4.30809 423.16
1736 1 -44.6031 4.21663 428.113 -44.6031 4.21663 428.113
1142 1 -54.2331 2.14627 420.279 -54.2331 2.14627 420.279
1720 1 -53.9786 4.19166 429.478 -53.9786 4.19166 429.478
2005 1 -55.6363 4.15635 431.399 -55.6363 4.15635 431.399
2002 1 -57.2936 4.12091 433.321 -57.2936 4.12091 433.321
1169 1 -37.9623 4.35282 420.436 -37.9623 4.35282 420.436
1723 1 -52.3203 4.22677 427.556 -52.3203 4.22677 427.556
1440 1 -49.0024 4.29623 423.715 -49.0024 4.29623 423.715
1733 1 -46.262 4.18186 430.033 -46.262 4.18186 430.033
2018 1 -47.9203 4.14684 431.954 -47.9203 4.14684 431.954
2015 1 -49.578 4.11159 433.875 -49.578 4.11159 433.875
2036 1 -38.5463 4.17323 430.594 -38.5463 4.17323 430.594
2032 1 -40.2055 4.13866 432.513 -40.2055 4.13866 432.513
2326 1 -36.6386 1.83066 437.875 -36.6386 1.83066 437.875
1752 1 -35.2258 4.24131 426.756 -35.2258 4.24131 426.756
1457 1 -39.6231 4.31921 422.355 -39.6231 4.31921 422.355
2043 1 -33.9558 1.20459 431.609 -33.9558 1.20459 431.609
2286 1 -59.779 1.85393 436.203 -59.779 1.85393 436.203
2319 1 -40.5902 1.06559 439.288 -40.5902 1.06559 439.288
1436 1 -50.6616 4.26164 425.636 -50.6616 4.26164 425.636
1422 1 -58.3801 4.27313 425.081 -58.3801 4.27313 425.081
1173 1 -35.6657 0.653796 420.944 -35.6657 0.653796 420.944
2293 1 -56.0155 1.08006 438.174 -56.0155 1.08006 438.174
2289 1 -58.3113 0.351166 437.669 -58.3113 0.351166 437.669
2295 1 -54.548 4.00515 439.64 -54.548 4.00515 439.64
1465 1 -35.0304 1.34902 423.371 -35.0304 1.34902 423.371
2315 1 -42.8844 0.335703 438.782 -42.8844 0.335703 438.782
2331 1 -34.1506 4.09652 434.995 -34.1506 4.09652 434.995
2297 1 -53.72 1.80919 438.679 -53.72 1.80919 438.679
2324 1 -37.4675 4.02686 438.835 -37.4675 4.02686 438.835
2306 1 -48.3018 1.07218 438.73 -48.3018 1.07218 438.73
2285 1 -59.9675 0.31573 439.591 -59.9675 0.31573 439.591
1462 1 -36.6914 1.3155 425.289 -36.6914 1.3155 425.289
1751 1 -35.421 2.70597 430.142 -35.421 2.70597 430.142
2329 1 -34.9802 1.8655 435.955 -34.9802 1.8655 435.955
2042 1 -34.7858 3.40125 432.569 -34.7858 3.40125 432.569
2041 1 -35.6156 1.17035 433.528 -35.6156 1.17035 433.528
2593 1 -49.1299 3.26816 439.69 -49.1299 3.26816 439.69
2328 1 -35.1735 0.329374 439.342 -35.1735 0.329374 439.342
2301 1 -51.4248 2.53856 439.184 -51.4248 2.53856 439.184
1466 1 -34.1998 3.57938 422.412 -34.1998 3.57938 422.412
2298 1 -53.5306 3.34706 435.291 -53.5306 3.34706 435.291
2321 1 -39.7616 3.29694 438.328 -39.7616 3.29694 438.328
2313 1 -44.3504 1.83729 437.314 -44.3504 1.83729 437.314
2294 1 -55.1873 3.31155 437.213 -55.1873 3.31155 437.213
2304 1 -49.7684 2.57407 437.263 -49.7684 2.57407 437.263
2300 1 -52.0636 1.84471 436.757 -52.0636 1.84471 436.757
2290 1 -57.483 2.58264 436.708 -57.483 2.58264 436.708
2318 1 -41.2273 0.370951 436.861 -41.2273 0.370951 436.861
2327 1 -35.8095 4.06185 436.915 -35.8095 4.06185 436.915
2004 1 -55.8263 2.61815 434.786 -55.8263 2.61815 434.786
2013 1 -50.4067 1.88018 434.836 -50.4067 1.88018 434.836
2288 1 -58.9506 4.0854 435.242 -58.9506 4.0854 435.242
2037 1 -37.9105 0.440756 433.02 -37.9105 0.440756 433.02
1739 1 -42.9436 4.25111 426.193 -42.9436 4.25111 426.193
1753 1 -34.5908 0.509205 429.183 -34.5908 0.509205 429.183
2307 1 -48.1115 2.6095 435.342 -48.1115 2.6095 435.342
2314 1 -43.5218 4.06865 436.354 -43.5218 4.06865 436.354
2040 1 -36.251 0.475175 431.101 -36.251 0.475175 431.101
2320 1 -40.3984 2.60223 435.9 -40.3984 2.60223 435.9
2292 1 -56.6547 0.386672 435.747 -56.6547 0.386672 435.747
2311 1 -45.8165 3.33901 435.848 -45.8165 3.33901 435.848
2302 1 -51.2352 4.07619 435.797 -51.2352 4.07619 435.797
2296 1 -54.359 1.11558 436.252 -54.359 1.11558 436.252
1463 1 -36.4962 2.85085 421.903 -36.4962 2.85085 421.903
2287 1 -59.1394 2.54716 438.63 -59.1394 2.54716 438.63
2291 1 -56.8436 3.27603 439.135 -56.8436 3.27603 439.135
2317 1 -42.0559 2.56707 437.821 -42.0559 2.56707 437.821
2038 1 -37.0809 2.67174 432.061 -37.0809 2.67174 432.061
2305 1 -48.94 0.378076 436.302 -48.94 0.378076 436.302
2332 1 -33.5152 0.364272 437.423 -33.5152 0.364272 437.423
1709 1 -60.0381 4.23792 427.003 -60.0381 4.23792 427.003
1468 1 -33.369 1.3822 421.453 -33.369 1.3822 421.453
1454 1 -41.2835 4.2853 424.274 -41.2835 4.2853 424.274
1429 1 -55.0627 4.34276 421.239 -55.0627 4.34276 421.239
1133 1 -59.6562 2.88697 420.229 -59.6562 2.88697 420.229
1175 1 -34.835 2.88411 419.986 -34.835 2.88411 419.986
2616 1 -36.1936 0.988939 443.691 -36.1936 0.988939 443.691
2901 1 -37.8492 0.95356 445.612 -37.8492 0.95356 445.612
2907 1 -34.7283 3.91505 445.159 -34.7283 3.91505 445.159
3194 1 -35.7447 0.146836 449.509 -35.7447 0.146836 449.509
2587 1 -52.2527 0.307069 440.145 -52.2527 0.307069 440.145
2597 1 -46.8352 3.99792 440.196 -46.8352 3.99792 440.196
2584 1 -53.9083 0.271561 442.067 -53.9083 0.271561 442.067
2581 1 -55.5635 0.23615 443.989 -55.5635 0.23615 443.989
2868 1 -57.2183 0.200918 445.911 -57.2183 0.200918 445.911
2865 1 -58.8729 0.165958 447.832 -58.8729 0.165958 447.832
2601 1 -44.5409 0.30033 440.703 -44.5409 0.30033 440.703
2598 1 -46.1966 0.264911 442.624 -46.1966 0.264911 442.624
2885 1 -47.8517 0.229517 444.546 -47.8517 0.229517 444.546
2882 1 -49.5062 0.194216 446.468 -49.5062 0.194216 446.468
2879 1 -51.1601 0.159081 448.39 -51.1601 0.159081 448.39
2612 1 -38.4871 0.258876 443.184 -38.4871 0.258876 443.184
2898 1 -40.1426 0.223507 445.105 -40.1426 0.223507 445.105
2895 1 -41.7972 0.188186 447.027 -41.7972 0.188186 447.027
3180 1 -43.4512 0.152977 448.949 -43.4512 0.152977 448.949
2576 1 -58.4995 3.24061 441.057 -58.4995 3.24061 441.057
2574 1 -60.1552 3.20534 442.979 -60.1552 3.20534 442.979
2589 1 -50.7856 3.23265 441.612 -50.7856 3.23265 441.612
2586 1 -52.4408 3.19718 443.534 -52.4408 3.19718 443.534
2874 1 -54.0956 3.16182 445.456 -54.0956 3.16182 445.456
2871 1 -55.75 3.12664 447.377 -55.75 3.12664 447.377
3155 1 -57.4041 3.09173 449.299 -57.4041 3.09173 449.299
2607 1 -41.4186 3.26167 440.249 -41.4186 3.26167 440.249
2604 1 -43.0747 3.2263 442.17 -43.0747 3.2263 442.17
2600 1 -44.7301 3.19091 444.092 -44.7301 3.19091 444.092
2887 1 -46.3848 3.15558 446.014 -46.3848 3.15558 446.014
2884 1 -48.0389 3.12038 447.936 -48.0389 3.12038 447.936
3168 1 -49.6925 3.08538 449.858 -49.6925 3.08538 449.858
2900 1 -38.6766 3.14961 446.573 -38.6766 3.14961 446.573
2897 1 -40.3309 3.11434 448.495 -40.3309 3.11434 448.495
2582 1 -55.3759 1.77367 440.601 -55.3759 1.77367 440.601
2579 1 -57.0315 1.73824 442.523 -57.0315 1.73824 442.523
2866 1 -58.6867 1.70299 444.444 -58.6867 1.70299 444.444
2578 1 -57.6716 1.04458 440.096 -57.6716 1.04458 440.096
2595 1 -47.6632 1.76646 441.157 -47.6632 1.76646 441.157
2592 1 -49.3186 1.731 443.079 -49.3186 1.731 443.079
2880 1 -50.9735 1.69561 445.001 -50.9735 1.69561 445.001
2877 1 -52.6278 1.66033 446.923 -52.6278 1.66033 446.923
2873 1 -54.2818 1.62527 448.844 -54.2818 1.62527 448.844
2609 1 -39.9528 1.76025 441.716 -39.9528 1.76025 441.716
2606 1 -41.6086 1.72488 443.638 -41.6086 1.72488 443.638
2892 1 -43.2637 1.68952 445.559 -43.2637 1.68952 445.559
2890 1 -44.918 1.65425 447.481 -44.918 1.65425 447.481
3174 1 -46.5717 1.61913 449.403 -46.5717 1.61913 449.403
2618 1 -35.3655 3.22034 442.73 -35.3655 3.22034 442.73
2585 1 -53.0806 2.50303 441.106 -53.0806 2.50303 441.106
2583 1 -54.736 2.46756 443.028 -54.736 2.46756 443.028
2870 1 -56.391 2.43223 444.95 -56.391 2.43223 444.95
2867 1 -58.0457 2.39712 446.871 -58.0457 2.39712 446.871
2863 1 -59.7002 2.36234 448.793 -59.7002 2.36234 448.793
2599 1 -45.3688 2.49635 441.664 -45.3688 2.49635 441.664
2596 1 -47.0242 2.46093 443.585 -47.0242 2.46093 443.585
2883 1 -48.679 2.42558 445.507 -48.679 2.42558 445.507
2881 1 -50.3332 2.39035 447.429 -50.3332 2.39035 447.429
3164 1 -51.9869 2.35533 449.351 -51.9869 2.35533 449.351
2610 1 -39.3149 2.45492 444.144 -39.3149 2.45492 444.144
2896 1 -40.97 2.41956 446.066 -40.97 2.41956 446.066
2893 1 -42.6243 2.38429 447.988 -42.6243 2.38429 447.988
3178 1 -44.2779 2.34915 449.91 -44.2779 2.34915 449.91
2575 1 -59.3274 1.00922 442.018 -59.3274 1.00922 442.018
2591 1 -49.9578 1.03668 440.651 -49.9578 1.03668 440.651
2588 1 -51.6133 1.00118 442.573 -51.6133 1.00118 442.573
2876 1 -53.2683 0.965755 444.495 -53.2683 0.965755 444.495
2872 1 -54.9228 0.930472 446.416 -54.9228 0.930472 446.416
2869 1 -56.5771 0.895417 448.338 -56.5771 0.895417 448.338
2605 1 -42.2467 1.03026 441.209 -42.2467 1.03026 441.209
2602 1 -43.9025 0.994875 443.131 -43.9025 0.994875 443.131
2889 1 -45.5576 0.959508 445.053 -45.5576 0.959508 445.053
2886 1 -47.212 0.924233 446.975 -47.212 0.924233 446.975
3170 1 -48.8658 0.889123 448.897 -48.8658 0.889123 448.897
2899 1 -39.5038 0.918231 447.534 -39.5038 0.918231 447.534
3184 1 -41.1577 0.883029 449.456 -41.1577 0.883029 449.456
2580 1 -56.2037 3.96967 441.562 -56.2037 3.96967 441.562
2577 1 -57.8591 3.93432 443.484 -57.8591 3.93432 443.484
2864 1 -59.5143 3.89919 445.405 -59.5143 3.89919 445.405
2862 1 -60.3418 1.66801 446.366 -60.3418 1.66801 446.366
2594 1 -48.491 3.96246 442.118 -48.491 3.96246 442.118
2590 1 -50.1461 3.92702 444.04 -50.1461 3.92702 444.04
2878 1 -51.8007 3.89168 445.962 -51.8007 3.89168 445.962
2875 1 -53.4548 3.8565 447.883 -53.4548 3.8565 447.883
3159 1 -55.1086 3.82156 449.805 -55.1086 3.82156 449.805
2611 1 -39.1246 3.99164 440.756 -39.1246 3.99164 440.756
2608 1 -40.7808 3.95629 442.677 -40.7808 3.95629 442.677
2894 1 -42.4362 3.92092 444.598 -42.4362 3.92092 444.598
2891 1 -44.0909 3.8856 446.52 -44.0909 3.8856 446.52
2888 1 -45.7449 3.85039 448.442 -45.7449 3.85039 448.442
2904 1 -36.3834 3.87964 447.08 -36.3834 3.87964 447.08
2621 1 -33.7085 3.25558 440.81 -33.7085 3.25558 440.81
2617 1 -36.0022 2.52554 440.302 -36.0022 2.52554 440.302
2614 1 -37.6591 2.49028 442.223 -37.6591 2.49028 442.223
2908 1 -34.0904 0.182223 447.587 -34.0904 0.182223 447.587
2619 1 -34.5371 1.02426 441.77 -34.5371 1.02426 441.77
2906 1 -34.9177 2.37823 448.548 -34.9177 2.37823 448.548
2905 1 -35.556 1.68361 446.119 -35.556 1.68361 446.119
2620 1 -33.9003 1.71903 444.198 -33.9003 1.71903 444.198
3190 1 -38.0376 3.84434 449.002 -38.0376 3.84434 449.002
2902 1 -37.2106 1.64824 448.041 -37.2106 1.64824 448.041
2903 1 -37.0215 3.18498 444.651 -37.0215 3.18498 444.651
2615 1 -36.8308 0.294202 441.263 -36.8308 0.294202 441.263
2909 1 -33.263 2.41369 446.627 -33.263 2.41369 446.627
14 1 -52.3191 0.325443 399.122 -52.3191 4.7529 399.122
7 1 -56.7876 3.27543 398.235 -56.7876 3.27543 398.235
25 1 -44.5505 0.325269 399.599 -44.5505 4.75272 399.599
38 1 -36.7751 0.256812 400.103 -36.7751 4.68427 400.103
23 1 -46.2038 0.272712 401.508 -46.2038 4.70016 401.508
287 1 -49.5121 0.196262 405.325 -49.5121 4.62371 405.325
878 1 -40.7011 0.0381732 414.117 -40.7011 4.46563 414.117
579 1 -46.7642 0.085566 411.64 -46.7642 4.51302 411.64
585 1 -43.444 0.152316 407.8 -43.444 4.57977 407.8
290 1 -47.8588 0.233116 403.41 -47.8588 4.66057 403.41
11 1 -53.9239 0.263636 400.978 -53.9239 4.69109 400.978
595 1 -37.3794 0.104504 410.28 -37.3794 4.53196 410.28
1134 1 -59.4648 4.4247 416.843 -59.4648 4.4247 416.843
283 1 -51.1694 0.163024 407.243 -51.1694 4.59048 407.243
582 1 -45.1041 0.119012 409.72 -45.1041 4.54646 409.72
276 1 -55.588 0.24747 402.858 -55.588 4.67492 402.858
569 1 -52.8276 0.130736 409.162 -52.8276 4.55819 409.162
847 1 -57.8054 0.0310062 414.923 -57.8054 4.45846 414.923
556 1 -60.55 0.14868 408.61 -60.55 4.57613 408.61
272 1 -57.2364 0.217004 404.769 -57.2364 4.64446 404.769
3 1 -58.6031 3.2776 399.94 -58.6031 3.2776 399.94
35 1 -38.4522 0.244699 402.031 -38.4522 4.67215 402.031
598 1 -35.7178 0.137054 408.363 -35.7178 4.56451 408.363
850 1 -56.1457 0.0642857 413.003 -56.1457 4.49174 413.003