ITEM: TIMESTEP
0
ITEM: NUMBER OF ATOMS
4630
ITEM: BOX BOUNDS xy xz yz pp pp pp
-5.7840988501799998e+01 1.0086002035000000e+02 0.0000000000000000e+00
0.0000000000000000e+00 4.4274527100805940e+00 0.0000000000000000e+00
3.8000000000000000e+02 5.0000000000000000e+02 0.0000000000000000e+00
ITEM: ATOMS id type x y z xu yu zu
27 1 -42.6114 2.65333 398.305 -42.6114 2.65333 398.305
36 1 -37.1887 1.90324 398.151 -37.1887 1.90324 398.151
31 1 -40.233 3.32257 398.651 -40.233 3.32257 398.651
22 1 -45.6781 4.07965 398.843 -45.6781 4.07965 398.843
20 1 -46.4417 1.8652 399.752 -46.4417 1.8652 399.752
40 1 -34.8131 2.57547 398.503 -34.8131 2.57547 398.503
34 1 -37.9356 4.10494 399.049 -37.9356 4.10494 399.049
17 1 -48.7446 1.10195 399.365 -48.7446 1.10195 399.365
9 1 -54.1124 1.77997 399.493 -54.1124 1.77997 399.493
43 1 -32.518 3.35902 398.905 -32.518 3.35902 398.905
12 1 -51.8528 2.63091 399.921 -51.8528 2.63091 399.921
5 1 -56.4842 1.1607 399.141 -56.4842 1.1607 399.141
29 1 -41.0266 1.09824 399.558 -41.0266 1.09824 399.558
853 1 -52.862 3.06019 414.494 -52.862 3.06019 414.494
873 1 -42.0691 1.57998 414.174 -42.0691 1.57998 414.174
865 1 -45.953 0.814567 415.744 -45.953 0.814567 415.744
1174 1 -33.6406 2.25435 416.847 -33.6406 2.25435 416.847
883 1 -36.6691 0.838327 414.02 -36.6691 0.838327 414.02
863 1 -47.467 2.321 414.333 -47.467 2.321 414.333
315 1 -32.5844 1.7913 402.269 -32.5844 1.7913 402.269
307 1 -37.2698 3.23262 404.818 -37.2698 3.23262 404.818
1150 1 -47.5328 0.774992 417.732 -47.5328 0.774992 417.732
855 1 -51.3488 1.55396 415.905 -51.3488 1.55396 415.905
310 1 -35.6891 3.26681 402.839 -35.6891 3.26681 402.839
871 1 -42.8591 3.77454 415.168 -42.8591 3.77454 415.168
16 1 -49.5239 3.30629 400.278 -49.5239 3.30629 400.278
309 1 -35.7504 1.72638 406.23 -35.7504 1.72638 406.23
1156 1 -44.4393 3.73569 417.155 -44.4393 3.73569 417.155
867 1 -45.1632 3.04781 414.75 -45.1632 3.04781 414.75
1159 1 -42.1356 0.0353679 417.573 -42.1356 4.46282 417.573
1168 1 -36.7366 3.72251 417.419 -36.7366 3.72251 417.419
1170 1 -35.9456 1.52762 416.426 -35.9456 1.52762 416.426
594 1 -36.5405 3.92282 407.223 -36.5405 3.92282 407.223
37 1 -36.4115 2.56534 400.443 -36.4115 2.56534 400.443
851 1 -53.6511 0.826508 415.488 -53.6511 0.826508 415.488
857 1 -50.5595 3.78768 414.91 -50.5595 3.78768 414.91
592 1 -37.3304 1.69131 408.215 -37.3304 1.69131 408.215
849 1 -54.4403 3.02009 416.483 -54.4403 3.02009 416.483
877 1 -39.7645 2.30666 414.593 -39.7645 2.30666 414.593
1143 1 -52.1383 3.74755 416.899 -52.1383 3.74755 416.899
1140 1 -53.7174 3.70672 418.889 -53.7174 3.70672 418.889
845 1 -56.7421 2.29305 416.067 -56.7421 2.29305 416.067
875 1 -40.5548 0.0739066 415.586 -40.5548 4.50136 415.586
886 1 -35.0881 0.875154 412.035 -35.0881 0.875154 412.035
891 1 -31.9908 3.83276 411.466 -31.9908 3.83276 411.466
39 1 -34.9034 1.06772 401.844 -34.9034 1.06772 401.844
1177 1 -32.1269 0.748801 418.261 -32.1269 0.748801 418.261
1167 1 -37.5276 1.48979 418.411 -37.5276 1.48979 418.411
8 1 -54.9291 4.04937 400.515 -54.9291 4.04937 400.515
869 1 -43.6492 1.54148 416.161 -43.6492 1.54148 416.161
1136 1 -56.019 2.97908 418.473 -56.019 2.97908 418.473
1162 1 -40.6225 2.95695 418.985 -40.6225 2.95695 418.985
15 1 -50.3219 1.08937 401.315 -50.3219 1.08937 401.315
280 1 -51.8939 1.05955 403.3 -51.8939 1.05955 403.3
277 1 -53.47 1.03458 405.284 -53.47 1.03458 405.284
273 1 -55.0406 0.997015 407.276 -55.0406 0.997015 407.276
560 1 -56.6156 0.959797 409.266 -56.6156 0.959797 409.266
557 1 100.509 0.921557 411.256 -58.1919 0.921557 411.256
26 1 -42.6136 1.08609 401.557 -42.6136 1.08609 401.557
294 1 -44.1935 1.05712 403.558 -44.1935 1.05712 403.558
291 1 -45.7697 1.02071 405.547 -45.7697 1.02071 405.547
576 1 -47.3445 0.982389 407.535 -47.3445 0.982389 407.535
573 1 -48.9199 0.944373 409.522 -48.9199 0.944373 409.522
570 1 -50.4959 0.905557 411.51 -50.4959 0.905557 411.51
854 1 -52.073 0.866245 413.499 -52.073 0.866245 413.499
305 1 -38.0589 1.00154 405.809 -38.0589 1.00154 405.809
589 1 -39.6373 0.965602 407.795 -39.6373 0.965602 407.795
586 1 -41.2157 0.928895 409.781 -41.2157 0.928895 409.781
872 1 -42.7944 0.891497 411.769 -42.7944 0.891497 411.769
599 1 -33.5068 0.911104 410.051 -33.5068 0.911104 410.051
4 1 -56.5158 4.0599 402.446 -56.5158 4.0599 402.446
268 1 100.63 4.01416 404.459 -58.0708 4.01416 404.459
1152 1 -46.7428 3.00859 416.738 -46.7428 3.00859 416.738
19 1 -47.241 4.05142 400.755 -47.241 4.05142 400.755
286 1 -48.8091 4.01604 402.711 -48.8091 4.01604 402.711
282 1 -50.3765 3.98328 404.704 -50.3765 3.98328 404.704
279 1 -51.951 3.95255 406.693 -51.951 3.95255 406.693
565 1 -53.5246 3.91635 408.685 -53.5246 3.91635 408.685
563 1 -55.1005 3.87891 410.676 -55.1005 3.87891 410.676
846 1 -56.6776 3.8406 412.666 -56.6776 3.8406 412.666
32 1 -39.521 4.04853 401.013 -39.521 4.04853 401.013
300 1 -41.0994 4.01417 402.988 -41.0994 4.01417 402.988
297 1 -42.6751 3.9782 404.973 -42.6751 3.9782 404.973
293 1 -44.251 3.94194 406.959 -44.251 3.94194 406.959
578 1 -45.8272 3.90444 408.946 -45.8272 3.90444 408.946
575 1 -47.404 3.86627 410.934 -47.404 3.86627 410.934
860 1 -48.9814 3.82729 412.922 -48.9814 3.82729 412.922
591 1 -38.1202 3.88696 409.208 -38.1202 3.88696 409.208
588 1 -39.6996 3.85019 411.194 -39.6996 3.85019 411.194
874 1 -41.2792 3.8127 413.18 -41.2792 3.8127 413.18
10 1 -53.4184 2.5595 401.895 -53.4184 2.5595 401.895
274 1 -54.9938 2.5479 403.87 -54.9938 2.5479 403.87
271 1 -56.557 2.506 405.867 -56.557 2.506 405.867
558 1 100.57 2.46872 407.856 -58.1313 2.46872 407.856
24 1 -44.1577 2.60633 400.209 -44.1577 2.60633 400.209
21 1 -45.7255 2.56414 402.158 -45.7255 2.56414 402.158
288 1 -47.2914 2.52573 404.138 -47.2914 2.52573 404.138
285 1 -48.8619 2.48567 406.123 -48.8619 2.48567 406.123
571 1 -50.4358 2.44885 408.11 -50.4358 2.44885 408.11
568 1 -52.0103 2.41081 410.098 -52.0103 2.41081 410.098
852 1 -53.5866 2.37224 412.088 -53.5866 2.37224 412.088
848 1 -55.1642 2.33319 414.077 -55.1642 2.33319 414.077
306 1 -37.9983 2.53857 402.413 -37.9983 2.53857 402.413
302 1 -39.5781 2.50652 404.394 -39.5781 2.50652 404.394
299 1 -41.1552 2.4713 406.381 -41.1552 2.4713 406.381
583 1 -42.7326 2.43513 408.369 -42.7326 2.43513 408.369
581 1 -44.3103 2.39791 410.357 -44.3103 2.39791 410.357
866 1 -45.8885 2.35988 412.345 -45.8885 2.35988 412.345
880 1 -38.1841 2.34421 412.607 -38.1841 2.34421 412.607
312 1 -34.169 1.76003 404.247 -34.169 1.76003 404.247
2 1 100.645 1.17532 401.078 -58.0564 1.17532 401.078
13 1 -51.1004 3.28397 402.287 -51.1004 3.28397 402.287
278 1 -52.6817 3.2617 404.284 -52.6817 3.2617 404.284
275 1 -54.2542 3.22976 406.277 -54.2542 3.22976 406.277
562 1 -55.8274 3.19202 408.271 -55.8274 3.19202 408.271
559 1 -57.4036 3.15461 410.261 -57.4036 3.15461 410.261
1166 1 -38.3187 3.68435 419.404 -38.3187 3.68435 419.404
889 1 -32.7819 1.60116 412.457 -32.7819 1.60116 412.457
28 1 -41.8276 3.31511 400.593 -41.8276 3.31511 400.593
296 1 -43.4075 3.28653 402.569 -43.4075 3.28653 402.569
292 1 -44.9828 3.253 404.554 -44.9828 3.253 404.554
289 1 -46.557 3.21544 406.542 -46.557 3.21544 406.542
574 1 -48.132 3.17724 408.529 -48.132 3.17724 408.529
572 1 -49.7078 3.13884 410.516 -49.7078 3.13884 410.516
856 1 -51.2843 3.09968 412.505 -51.2843 3.09968 412.505
303 1 -38.8485 3.1973 406.802 -38.8485 3.1973 406.802
587 1 -40.4266 3.16101 408.788 -40.4266 3.16101 408.788
584 1 -42.005 3.12399 410.775 -42.005 3.12399 410.775
870 1 -43.5839 3.08626 412.762 -43.5839 3.08626 412.762
6 1 -55.7307 1.85735 401.446 -55.7307 1.85735 401.446
270 1 -57.2872 1.81979 403.456 -57.2872 1.81979 403.456
890 1 -32.058 2.29106 414.864 -32.058 2.29106 414.864
18 1 -48.0205 1.82065 401.728 -48.0205 1.82065 401.728
284 1 -49.5896 1.78691 403.713 -49.5896 1.78691 403.713
281 1 -51.164 1.75531 405.701 -51.164 1.75531 405.701
567 1 -52.7378 1.72134 407.69 -52.7378 1.72134 407.69
564 1 -54.3124 1.68397 409.681 -54.3124 1.68397 409.681
561 1 -55.8891 1.64623 411.671 -55.8891 1.64623 411.671
844 1 -57.4663 1.60714 413.661 -57.4663 1.60714 413.661
33 1 -38.7432 1.85369 400.05 -38.7432 1.85369 400.05
30 1 -40.3176 1.81515 401.991 -40.3176 1.81515 401.991
298 1 -41.8877 1.7817 403.976 -41.8877 1.7817 403.976
295 1 -43.463 1.74644 405.965 -43.463 1.74644 405.965
580 1 -45.039 1.70952 407.952 -45.039 1.70952 407.952
577 1 -46.6156 1.67168 409.94 -46.6156 1.67168 409.94
862 1 -48.1926 1.63314 411.928 -48.1926 1.63314 411.928
590 1 -38.9099 1.65496 410.201 -38.9099 1.65496 410.201
876 1 -40.4893 1.61781 412.187 -40.4893 1.61781 412.187
1163 1 -39.8317 0.762571 417.992 -39.8317 0.762571 417.992
1153 1 -46.0199 3.69612 419.143 -46.0199 3.69612 419.143
311 1 -34.9592 3.95737 405.239 -34.9592 3.95737 405.239
42 1 -33.3242 1.10772 399.906 -33.3242 1.10772 399.906
1135 1 -56.8085 0.744488 419.468 -56.8085 0.744488 419.468
1171 1 -35.2232 2.21694 418.832 -35.2232 2.21694 418.832
1139 1 -54.507 1.47227 419.883 -54.507 1.47227 419.883
601 1 -32.716 3.14241 409.06 -32.716 3.14241 409.06
313 1 -33.3746 3.99095 403.254 -33.3746 3.99095 403.254
858 1 -49.7704 1.59381 413.916 -49.7704 1.59381 413.916
868 1 -44.3735 0.85341 413.756 -44.3735 0.85341 413.756
1147 1 -49.8358 0.047622 417.316 -49.8358 4.47507 417.316
843 1 100.446 3.80071 414.656 -58.2549 3.80071 414.656
593 1 -36.6039 2.38106 410.621 -36.6039 2.38106 410.621
308 1 -36.4796 1.03548 403.825 -36.4796 1.03548 403.825
861 1 -48.2565 0.0875523 415.327 -48.2565 4.51501 415.327
1158 1 -42.9261 2.22957 418.567 -42.9261 2.22957 418.567
884 1 -35.8786 3.07056 413.027 -35.8786 3.07056 413.027
881 1 -37.4597 3.03336 415.013 -37.4597 3.03336 415.013
885 1 -35.1546 3.76001 415.434 -35.1546 3.76001 415.434
859 1 -49.0461 2.28139 416.321 -49.0461 2.28139 416.321
596 1 -35.0235 2.41699 408.637 -35.0235 2.41699 408.637
879 1 -38.2503 0.800779 416.006 -38.2503 0.800779 416.006
1172 1 -34.4319 0.0219995 417.839 -34.4319 4.44945 417.839
1154 1 -45.2296 1.50227 418.149 -45.2296 1.50227 418.149
887 1 -34.3637 1.56477 414.441 -34.3637 1.56477 414.441
597 1 -34.2975 3.10697 411.043 -34.2975 3.10697 411.043
1161 1 -41.3452 2.26845 416.58 -41.3452 2.26845 416.58
1138 1 -55.2296 0.785975 417.478 -55.2296 0.785975 417.478
1149 1 -48.3229 2.96867 418.727 -48.3229 2.96867 418.727
41 1 -34.1056 3.30093 400.868 -34.1056 3.30093 400.868
888 1 -33.5728 3.79679 413.449 -33.5728 3.79679 413.449
1165 1 -39.041 2.99548 416.999 -39.041 2.99548 416.999
1141 1 -52.9278 1.51351 417.894 -52.9278 1.51351 417.894
1145 1 -50.6255 2.24114 418.31 -50.6255 2.24114 418.31
600 1 -33.4424 2.45181 406.654 -33.4424 2.45181 406.654
1148 1 -49.113 0.734715 419.721 -49.113 0.734715 419.721
882 1 -37.394 0.149004 411.614 -37.394 4.57646 411.614
1157 1 -43.7167 4.4236 419.56 -43.7167 4.4236 419.56
1144 1 -51.4154 0.00701746 419.305 -51.4154 4.43447 419.305
602 1 -31.9248 0.945983 408.068 -31.9248 0.945983 408.068
1755 1 -31.5513 2.78076 427.461 -31.5513 2.78076 427.461
1460 1 -36.0854 2.86805 423.222 -36.0854 2.86805 423.222
2308 1 -44.8598 3.31008 437.552 -44.8598 3.31008 437.552
2316 1 -40.1886 1.89106 434.985 -40.1886 1.89106 434.985
2312 1 -42.5599 4.04088 437.968 -42.5599 4.04088 437.968
1464 1 -33.7817 3.59586 423.643 -33.7817 3.59586 423.643
1461 1 -35.2937 0.673556 422.23 -35.2937 0.673556 422.23
2039 1 -34.0035 3.39242 433.834 -34.0035 3.39242 433.834
2613 1 -35.6608 1.80618 439.219 -35.6608 1.80618 439.219
1467 1 -31.4776 4.32348 424.064 -31.4776 4.32348 424.064
2603 1 -41.0502 2.53657 439.379 -41.0502 2.53657 439.379
1443 1 -45.298 4.38369 421.548 -45.298 4.38369 421.548
1748 1 -35.3657 3.55737 425.627 -35.3657 3.55737 425.627
2023 1 -42.4891 1.16068 434.568 -42.4891 1.16068 434.568
2310 1 -43.3497 1.80556 438.963 -43.3497 1.80556 438.963
1151 1 -46.8103 1.46235 420.137 -46.8103 1.46235 420.137
2303 1 -47.9495 0.344003 438.131 -47.9495 0.344003 438.131
2299 1 -50.2498 4.04109 437.715 -50.2498 4.04109 437.715
2033 1 -37.0966 0.428435 434.409 -37.0966 0.428435 434.409
1433 1 -50.6933 0.693704 421.71 -50.6933 0.693704 421.71
1430 1 -52.2737 0.65196 423.699 -52.2737 0.65196 423.699
1426 1 -53.8541 0.609558 425.689 -53.8541 0.609558 425.689
1713 1 -55.4345 0.566644 427.679 -55.4345 0.566644 427.679
1710 1 -57.015 0.523409 429.669 -57.015 0.523409 429.669
2330 1 -31.7776 2.57809 437.651 -31.7776 2.57809 437.651
1160 1 -41.4134 0.723703 419.978 -41.4134 0.723703 419.978
1447 1 -42.9951 0.684149 421.965 -42.9951 0.684149 421.965
1444 1 -44.577 0.643878 423.953 -44.577 0.643878 423.953
1730 1 -46.1586 0.602868 425.941 -46.1586 0.602868 425.941
1727 1 -47.7401 0.561138 427.93 -47.7401 0.561138 427.93
1724 1 -49.3211 0.518762 429.919 -49.3211 0.518762 429.919
2008 1 -50.9018 0.475875 431.909 -50.9018 0.475875 431.909
2006 1 -52.4821 0.432653 433.899 -52.4821 0.432653 433.899
1458 1 -36.8772 0.634925 424.215 -36.8772 0.634925 424.215
1743 1 -38.4605 0.595567 426.2 -38.4605 0.595567 426.2
1740 1 -40.0437 0.555434 428.187 -40.0437 0.555434 428.187
2026 1 -41.6264 0.514501 430.174 -41.6264 0.514501 430.174
2022 1 -43.2084 0.472785 432.162 -43.2084 0.472785 432.162
2019 1 -44.7897 0.430365 434.151 -44.7897 0.430365 434.151
2309 1 -44.0698 1.11792 436.557 -44.0698 1.11792 436.557
1137 1 -55.2968 3.66508 420.878 -55.2968 3.66508 420.878
1421 1 -56.8764 3.62269 422.868 -56.8764 3.62269 422.868
1439 1 -47.6007 3.65585 421.131 -47.6007 3.65585 421.131
1435 1 -49.1815 3.61483 423.12 -49.1815 3.61483 423.12
1432 1 -50.7623 3.5731 425.109 -50.7623 3.5731 425.109
1719 1 -52.343 3.53071 427.099 -52.343 3.53071 427.099
1716 1 -53.9236 3.48782 429.089 -53.9236 3.48782 429.089
2001 1 -55.504 3.44461 431.079 -55.504 3.44461 431.079
1998 1 -57.0843 3.40129 433.069 -57.0843 3.40129 433.069
2323 1 -35.5873 3.35177 435.82 -35.5873 3.35177 435.82
1453 1 -39.9009 3.64553 421.39 -39.9009 3.64553 421.39
1450 1 -41.4833 3.60601 423.377 -41.4833 3.60601 423.377
1446 1 -43.0656 3.56576 425.364 -43.0656 3.56576 425.364
1732 1 -44.6476 3.52476 427.352 -44.6476 3.52476 427.352
1729 1 -46.2293 3.48303 429.341 -46.2293 3.48303 429.341
2014 1 -47.8105 3.44064 431.33 -47.8105 3.44064 431.33
2011 1 -49.3911 3.39772 433.319 -49.3911 3.39772 433.319
1745 1 -36.9496 3.51814 427.613 -36.9496 3.51814 427.613
1742 1 -38.5332 3.4781 429.599 -38.5332 3.4781 429.599
2028 1 -40.1162 3.43723 431.586 -40.1162 3.43723 431.586
2025 1 -41.6984 3.39553 433.573 -41.6984 3.39553 433.573
1427 1 -53.7852 2.15844 422.289 -53.7852 2.15844 422.289
1424 1 -55.3652 2.11603 424.279 -55.3652 2.11603 424.279
1711 1 -56.9454 2.07309 426.269 -56.9454 2.07309 426.269
2322 1 -36.3787 1.11735 436.814 -36.3787 1.11735 436.814
1750 1 -33.8546 2.05254 427.04 -33.8546 2.05254 427.04
1155 1 -44.5074 2.19001 420.554 -44.5074 2.19001 420.554
1441 1 -46.0887 2.14973 422.542 -46.0887 2.14973 422.542
1438 1 -47.6699 2.10872 424.531 -47.6699 2.10872 424.531
1725 1 -49.2511 2.06699 426.52 -49.2511 2.06699 426.52
1722 1 -50.832 2.02461 428.509 -50.832 2.02461 428.509
1718 1 -52.4127 1.98174 430.499 -52.4127 1.98174 430.499
2003 1 -53.993 1.93853 432.489 -53.993 1.93853 432.489
2000 1 -55.5731 1.89521 434.479 -55.5731 1.89521 434.479
1459 1 -36.806 2.17887 420.817 -36.806 2.17887 420.817
1455 1 -38.3889 2.14012 422.802 -38.3889 2.14012 422.802
1452 1 -39.9718 2.10067 424.789 -39.9718 2.10067 424.789
1737 1 -41.5545 2.06046 426.776 -41.5545 2.06046 426.776
1735 1 -43.1368 2.01949 428.763 -43.1368 2.01949 428.763
2020 1 -44.7187 1.97776 430.751 -44.7187 1.97776 430.751
2017 1 -46.3 1.93536 432.74 -46.3 1.93536 432.74
2034 1 -37.023 1.97353 431.01 -37.023 1.97353 431.01
2031 1 -38.6062 1.93273 432.997 -38.6062 1.93273 432.997
2029 1 -39.3975 4.12573 433.991 -39.3975 4.12573 433.991
1146 1 -49.9031 2.92803 420.715 -49.9031 2.92803 420.715
1431 1 -51.4835 2.88665 422.704 -51.4835 2.88665 422.704
1428 1 -53.0639 2.84456 424.694 -53.0639 2.84456 424.694
1715 1 -54.6443 2.80188 426.684 -54.6443 2.80188 426.684
1712 1 -56.2247 2.75878 428.674 -56.2247 2.75878 428.674
1708 1 100.896 2.71546 430.664 -57.8052 2.71546 430.664
1747 1 -35.439 2.01346 429.025 -35.439 2.01346 429.025
1449 1 -42.2042 2.91774 420.972 -42.2042 2.91774 420.972
1445 1 -43.7861 2.87783 422.959 -43.7861 2.87783 422.959
1442 1 -45.3678 2.83719 424.947 -45.3678 2.83719 424.947
1728 1 -46.9494 2.79582 426.936 -46.9494 2.79582 426.936
1726 1 -48.5307 2.75375 428.925 -48.5307 2.75375 428.925
2010 1 -50.1115 2.7111 430.914 -50.1115 2.7111 430.914
2007 1 -51.692 2.66802 432.904 -51.692 2.66802 432.904
1456 1 -37.6689 2.82907 425.208 -37.6689 2.82907 425.208
1741 1 -39.2522 2.78933 427.194 -39.2522 2.78933 427.194
1738 1 -40.8351 2.74879 429.181 -40.8351 2.74879 429.181
2024 1 -42.4175 2.70746 431.168 -42.4175 2.70746 431.168
2021 1 -43.9991 2.66538 433.157 -43.9991 2.66538 433.157
2035 1 -36.305 2.66264 433.415 -36.305 2.66264 433.415
1754 1 -32.27 2.09086 425.056 -32.27 2.09086 425.056
1423 1 -56.0865 1.43024 421.873 -56.0865 1.43024 421.873
1420 1 -57.6663 1.38753 423.863 -57.6663 1.38753 423.863
2044 1 -30.9091 1.92789 433.262 -30.9091 1.92789 433.262
1437 1 -48.3911 1.42171 422.126 -48.3911 1.42171 422.126
1434 1 -49.9719 1.38033 424.115 -49.9719 1.38033 424.115
1721 1 -51.5527 1.33825 426.104 -51.5527 1.33825 426.104
1717 1 -53.1333 1.29559 428.094 -53.1333 1.29559 428.094
1714 1 -54.7138 1.25252 430.084 -54.7138 1.25252 430.084
1999 1 -56.2942 1.20923 432.074 -56.2942 1.20923 432.074
1997 1 -57.8744 1.16593 434.064 -57.8744 1.16593 434.064
1164 1 -39.1098 1.4513 420.397 -39.1098 1.4513 420.397
1451 1 -40.6921 1.41213 422.384 -40.6921 1.41213 422.384
1448 1 -42.2744 1.37225 424.371 -42.2744 1.37225 424.371
1734 1 -43.8566 1.33162 426.358 -43.8566 1.33162 426.358
1731 1 -45.4385 1.29025 428.346 -45.4385 1.29025 428.346
2016 1 -47.0199 1.24818 430.335 -47.0199 1.24818 430.335
2012 1 -48.6009 1.20551 432.325 -48.6009 1.20551 432.325
2009 1 -50.1812 1.1624 434.314 -50.1812 1.1624 434.314
1746 1 -36.1577 1.32413 426.62 -36.1577 1.32413 426.62
1744 1 -37.7415 1.2845 428.605 -37.7415 1.2845 428.605
2030 1 -39.3248 1.24404 430.592 -39.3248 1.24404 430.592
2027 1 -40.9074 1.20275 432.579 -40.9074 1.20275 432.579
2325 1 -34.7955 1.15849 434.827 -34.7955 1.15849 434.827
1749 1 -34.6469 4.24683 428.032 -34.6469 4.24683 428.032
1425 1 -54.5752 4.35104 423.284 -54.5752 4.35104 423.284
1736 1 -42.3457 4.2538 427.769 -42.3457 4.2538 427.769
1142 1 -52.2053 2.20016 420.299 -52.2053 2.20016 420.299
1720 1 -51.6224 4.21695 429.504 -51.6224 4.21695 429.504
2005 1 -53.2029 4.17389 431.494 -53.2029 4.17389 431.494
2002 1 -54.7831 4.1306 433.484 -54.7831 4.1306 433.484
1169 1 -36.0146 4.41171 419.824 -36.0146 4.41171 419.824
1723 1 -50.0416 4.2596 427.514 -50.0416 4.2596 427.514
1440 1 -46.8793 4.34305 423.536 -46.8793 4.34305 423.536
1733 1 -43.9278 4.21244 429.757 -43.9278 4.21244 429.757
2018 1 -45.5094 4.17036 431.746 -45.5094 4.17036 431.746
2015 1 -47.0903 4.12766 433.735 -47.0903 4.12766 433.735
2036 1 -36.2311 4.20733 430.017 -36.2311 4.20733 430.017
2032 1 -37.8147 4.16697 432.004 -37.8147 4.16697 432.004
2326 1 -34.0782 1.8478 437.232 -34.0782 1.8478 437.232
1752 1 -33.0623 4.28552 426.048 -33.0623 4.28552 426.048
1457 1 -37.5974 4.37331 421.81 -37.5974 4.37331 421.81
2043 1 -31.6261 1.23783 430.857 -31.6261 1.23783 430.857
2286 1 -57.1529 1.85197 436.469 -57.1529 1.85197 436.469
2319 1 -37.9605 1.07527 438.802 -37.9605 1.07527 438.802
1436 1 -48.4605 4.30167 425.525 -48.4605 4.30167 425.525
1422 1 -56.1553 4.30834 425.274 -56.1553 4.30834 425.274
1173 1 -33.7102 0.711506 420.245 -33.7102 0.711506 420.245
2293 1 -53.34 1.07564 438.295 -53.34 1.07564 438.295
2289 1 -55.6412 0.346028 437.88 -55.6412 0.346028 437.88
2295 1 -51.8284 3.99762 439.705 -51.8284 3.99762 439.705
1465 1 -32.9896 1.40112 422.651 -32.9896 1.40112 422.651
2315 1 -40.2601 0.344334 438.385 -40.2601 0.344334 438.385
2331 1 -31.7018 4.12199 434.254 -31.7018 4.12199 434.254
2297 1 -51.0392 1.80562 438.71 -51.0392 1.80562 438.71
2324 1 -34.8697 4.04085 438.226 -34.8697 4.04085 438.226
2306 1 -45.6495 1.07467 438.547 -45.6495 1.07467 438.547
2285 1 -57.2201 0.303037 439.87 -57.2201 0.303037 439.87
1462 1 -34.5737 1.36298 424.635 -34.5737 1.36298 424.635
1751 1 -33.1364 2.74225 429.445 -33.1364 2.74225 429.445
2329 1 -32.4943 1.88837 435.246 -32.4943 1.88837 435.246
2042 1 -32.4188 3.43208 431.85 -32.4188 3.43208 431.85
2041 1 -33.2113 1.19864 432.842 -33.2113 1.19864 432.842
2593 1 -46.4389 3.26665 439.542 -46.4389 3.26665 439.542
2328 1 -32.5695 0.343971 438.644 -32.5695 0.343971 438.644
2301 1 -48.7389 2.53597 439.126 -48.7389 2.53597 439.126
1466 1 -32.1976 3.63366 421.659 -32.1976 3.63366 421.659
2298 1 -50.9711 3.35446 435.309 -50.9711 3.35446 435.309
2321 1 -37.1698 3.31015 437.808 -37.1698 3.31015 437.808
2313 1 -41.7698 1.84862 436.973 -41.7698 1.84862 436.973
2294 1 -52.5505 3.31106 437.3 -52.5505 3.31106 437.3
2304 1 -47.1599 2.57945 437.136 -47.1599 2.57945 437.136
2300 1 -49.4603 1.84909 436.72 -49.4603 1.84909 436.72
2290 1 -54.8516 2.58137 436.885 -54.8516 2.58137 436.885
2318 1 -38.679 0.386795 436.396 -38.679 0.386795 436.396
2327 1 -33.2864 4.08195 436.239 -33.2864 4.08195 436.239
2004 1 -53.272 2.62471 434.894 -53.272 2.62471 434.894
2013 1 -47.8805 1.89241 434.73 -47.8805 1.89241 434.73
2288 1 -56.3631 4.08729 435.474 -56.3631 4.08729 435.474
2037 1 -35.5131 0.469161 432.422 -35.5131 0.469161 432.422
1739 1 -40.7631 4.29439 425.782 -40.7631 4.29439 425.782
1753 1 -32.3438 0.547875 428.453 -32.3438 0.547875 428.453
2307 1 -45.58 2.62266 435.146 -45.58 2.62266 435.146
2314 1 -40.9793 4.08366 435.979 -40.9793 4.08366 435.979
2040 1 -33.9288 0.508958 430.437 -33.9288 0.508958 430.437
2320 1 -37.888 2.62145 435.402 -37.888 2.62145 435.402
2292 1 -54.0619 0.389301 435.889 -54.0619 0.389301 435.889
2311 1 -43.2796 3.3531 435.562 -43.2796 3.3531 435.562
2302 1 -48.6705 4.08451 435.725 -48.6705 4.08451 435.725
2296 1 -51.7609 1.11904 436.305 -51.7609 1.11904 436.305
1463 1 -34.5019 2.90634 421.237 -34.5019 2.90634 421.237
2287 1 -56.4307 2.53821 438.875 -56.4307 2.53821 438.875
2291 1 -54.1293 3.26773 439.29 -54.1293 3.26773 439.29
2317 1 -39.4698 2.57938 437.39 -39.4698 2.57938 437.39
2038 1 -34.721 2.7029 431.43 -34.721 2.7029 431.43
2305 1 -46.3701 0.387376 436.141 -46.3701 0.387376 436.141
2332 1 -30.9853 0.384475 436.659 -30.9853 0.384475 436.659
1709 1 -57.7356 4.2652 427.264 -57.7356 4.2652 427.264
1468 1 -31.4056 1.43859 420.667 -31.4056 1.43859 420.667
1454 1 -39.1803 4.33421 423.795 -39.1803 4.33421 423.795
1429 1 -52.9952 4.39312 421.294 -52.9952 4.39312 421.294
1133 1 -57.598 2.93713 420.463 -57.598 2.93713 420.463
1175 1 -32.9186 2.94396 419.253 -32.9186 2.94396 419.253
2616 1 -33.4341 0.991055 443.037 -33.4341 0.991055 443.037
2901 1 -35.0132 0.947877 445.026 -35.0132 0.947877 445.026
2907 1 -31.9259 3.91475 444.449 -31.9259 3.91475 444.449
3194 1 -32.7839 0.131648 448.846 -32.7839 0.131648 448.846
2587 1 -49.528 0.300463 440.121 -49.528 0.300463 440.121
2597 1 -44.1392 3.99758 439.958 -44.1392 3.99758 439.958
2584 1 -51.1055 0.256988 442.112 -51.1055 0.256988 442.112
2581 1 -52.6822 0.213809 444.102 -52.6822 0.213809 444.102
2868 1 -54.2581 0.171149 446.093 -54.2581 0.171149 446.093
2865 1 -55.8334 0.129208 448.083 -55.8334 0.129208 448.083
2601 1 -41.8398 0.301224 440.374 -41.8398 0.301224 440.374
2598 1 -43.418 0.257699 442.365 -43.418 0.257699 442.365
2885 1 -44.9946 0.214027 444.356 -44.9946 0.214027 444.356
2882 1 -46.5699 0.170489 446.347 -46.5699 0.170489 446.347
2879 1 -48.1438 0.127357 448.338 -48.1438 0.127357 448.338
2612 1 -35.7327 0.259706 442.62 -35.7327 0.259706 442.62
2898 1 -37.3111 0.216323 444.61 -37.3111 0.216323 444.61
2895 1 -38.8874 0.172512 446.601 -38.8874 0.172512 446.601
3180 1 -40.4616 0.128629 448.592 -40.4616 0.128629 448.592
2576 1 -55.7076 3.22469 441.28 -55.7076 3.22469 441.28
2574 1 -57.2853 3.18212 443.27 -57.2853 3.18212 443.27
2589 1 -48.0168 3.22305 441.532 -48.0168 3.22305 441.532
2586 1 -49.5936 3.17953 443.523 -49.5936 3.17953 443.523
2874 1 -51.1694 3.13631 445.514 -51.1694 3.13631 445.514
2871 1 -52.7443 3.09363 447.504 -52.7443 3.09363 447.504
3155 1 -54.3185 3.0517 449.494 -54.3185 3.0517 449.494
2607 1 -38.7507 3.26765 439.796 -38.7507 3.26765 439.796
2604 1 -40.3301 3.22447 441.786 -40.3301 3.22447 441.786
2600 1 -41.9077 3.18088 443.776 -41.9077 3.18088 443.776
2887 1 -43.4836 3.13716 445.768 -43.4836 3.13716 445.768
2884 1 -45.0579 3.09362 447.759 -45.0579 3.09362 447.759
3168 1 -46.6309 3.05058 449.751 -46.6309 3.05058 449.751
2900 1 -35.8019 3.13976 446.022 -35.8019 3.13976 446.022
2897 1 -37.3773 3.09583 448.013 -37.3773 3.09583 448.013
2582 1 -52.6174 1.76221 440.701 -52.6174 1.76221 440.701
2579 1 -54.1949 1.7191 442.691 -54.1949 1.7191 442.691
2866 1 -55.7718 1.67649 444.681 -55.7718 1.67649 444.681
2578 1 -54.9185 1.03243 440.285 -54.9185 1.03243 440.285
2595 1 -44.9283 1.76208 440.953 -44.9283 1.76208 440.953
2592 1 -46.5057 1.71845 442.944 -46.5057 1.71845 442.944
2880 1 -48.0817 1.6749 444.935 -48.0817 1.6749 444.935
2877 1 -49.6566 1.6317 446.926 -49.6566 1.6317 446.926
2873 1 -51.2305 1.58908 448.917 -51.2305 1.58908 448.917
2609 1 -37.2416 1.76363 441.208 -37.2416 1.76363 441.208
2606 1 -38.8205 1.72037 443.198 -38.8205 1.72037 443.198
2892 1 -40.3975 1.67667 445.188 -40.3975 1.67667 445.188
2890 1 -41.9726 1.63288 447.18 -41.9726 1.63288 447.18
3174 1 -43.5459 1.58932 449.172 -43.5459 1.58932 449.172
2618 1 -32.6437 3.22603 442.043 -32.6437 3.22603 442.043
2585 1 -50.3169 2.49243 441.116 -50.3169 2.49243 441.116
2583 1 -51.8939 2.44907 443.107 -51.8939 2.44907 443.107
2870 1 -53.4702 2.40613 445.097 -53.4702 2.40613 445.097
2867 1 -55.0458 2.3638 447.088 -55.0458 2.3638 447.088
2863 1 -56.6209 2.32229 449.077 -56.6209 2.32229 449.077
2599 1 -42.6291 2.49322 441.369 -42.6291 2.49322 441.369
2596 1 -44.2065 2.44959 443.36 -44.2065 2.44959 443.36
2883 1 -45.7824 2.40595 445.351 -45.7824 2.40595 445.351
2881 1 -47.357 2.36258 447.343 -47.357 2.36258 447.343
3164 1 -48.9303 2.31975 449.334 -48.9303 2.31975 449.334
2610 1 -36.5222 2.45182 443.614 -36.5222 2.45182 443.614
2896 1 -38.0995 2.40818 445.605 -38.0995 2.40818 445.605
2893 1 -39.6747 2.36428 447.596 -39.6747 2.36428 447.596
3178 1 -41.2479 2.3205 449.589 -41.2479 2.3205 449.589
2575 1 -56.4965 0.989607 442.275 -56.4965 0.989607 442.275
2591 1 -47.228 1.03113 440.537 -47.228 1.03113 440.537
2588 1 -48.8053 0.987538 442.528 -48.8053 0.987538 442.528
2876 1 -50.3816 0.944137 444.518 -50.3816 0.944137 444.518
2872 1 -51.957 0.901163 446.509 -51.957 0.901163 446.509
2869 1 -53.5315 0.858834 448.499 -53.5315 0.858834 448.499
2605 1 -39.5406 1.03241 440.791 -39.5406 1.03241 440.791
2602 1 -41.1191 0.988985 442.781 -41.1191 0.988985 442.781
2889 1 -42.6959 0.945289 444.772 -42.6959 0.945289 444.772
2886 1 -44.271 0.901624 446.763 -44.271 0.901624 446.763
3170 1 -45.8446 0.858295 448.755 -45.8446 0.858295 448.755
2899 1 -36.5899 0.904096 447.017 -36.5899 0.904096 447.017
3184 1 -38.1642 0.860101 449.009 -38.1642 0.860101 449.009
2580 1 -53.4063 3.95434 441.696 -53.4063 3.95434 441.696
2577 1 -54.9834 3.91145 443.686 -54.9834 3.91145 443.686
2864 1 -56.56 3.86916 445.676 -56.56 3.86916 445.676
2862 1 -57.3481 1.63457 446.671 -57.3481 1.63457 446.671
2594 1 -45.7172 3.954 441.948 -45.7172 3.954 441.948
2590 1 -47.2938 3.91037 443.939 -47.2938 3.91037 443.939
2878 1 -48.8693 3.86697 445.93 -48.8693 3.86697 445.93
2875 1 -50.4437 3.82403 447.921 -50.4437 3.82403 447.921
3159 1 -52.0171 3.78178 449.912 -52.0171 3.78178 449.912
2611 1 -36.4514 3.99874 440.213 -36.4514 3.99874 440.213
2608 1 -38.0313 3.9558 442.203 -38.0313 3.9558 442.203
2894 1 -39.6092 3.91228 444.193 -39.6092 3.91228 444.193
2891 1 -41.1853 3.86849 446.184 -41.1853 3.86849 446.184
2888 1 -42.7595 3.82477 448.176 -42.7595 3.82477 448.176
2904 1 -33.5045 3.87139 446.439 -33.5045 3.87139 446.439
2621 1 -31.0612 3.26771 440.056 -31.0612 3.26771 440.056
2617 1 -33.361 2.53702 439.637 -33.361 2.53702 439.637
2614 1 -34.9426 2.49486 441.625 -34.9426 2.49486 441.625
2908 1 -31.2075 0.175597 446.856 -31.2075 0.175597 446.856
2619 1 -31.8527 1.03329 441.049 -31.8527 1.03329 441.049
2906 1 -31.9961 2.36742 447.851 -31.9961 2.36742 447.851
2905 1 -32.7156 1.67945 445.444 -32.7156 1.67945 445.444
2620 1 -31.1357 1.72235 443.455 -31.1357 1.72235 443.455
3190 1 -35.0804 3.82744 448.43 -35.0804 3.82744 448.43
2902 1 -34.2928 1.63574 447.434 -34.2928 1.63574 447.434
2903 1 -34.224 3.18329 444.032 -34.224 3.18329 444.032
2615 1 -34.1521 0.302338 440.631 -34.1521 0.302338 440.631
2909 1 -30.4181 2.41102 445.861 -30.4181 2.41102 445.861
14 1 -51.1222 0.429328 399.019 -51.1222 4.85678 399.019
7 1 -55.5937 3.38256 398.305 -55.5937 3.38256 398.305
25 1 -43.3683 0.426819 399.202 -43.3683 4.85427 399.202
38 1 -35.6025 0.351475 399.41 -35.6025 4.77893 399.41
23 1 -44.9368 0.372644 401.177 -44.9368 4.8001 401.177
287 1 -48.0765 0.290807 405.129 -48.0765 4.71826 405.129
878 1 -38.9743 0.111791 413.6 -38.9743 4.53924 413.6
579 1 -45.0993 0.165282 411.351 -45.0993 4.59273 411.351
585 1 -41.9438 0.239725 407.376 -41.9438 4.66718 407.376
290 1 -46.5079 0.330907 403.147 -46.5079 4.75836 403.147
11 1 -52.6382 0.367001 400.944 -52.6382 4.79445 400.944
595 1 -35.8137 0.18544 409.629 -35.8137 4.61289 409.629
1134 1 -57.5312 0.0587909 417.062 -57.5312 4.48624 417.062
283 1 -49.6488 0.253265 407.115 -49.6488 4.68072 407.115
582 1 -43.5214 0.202929 409.363 -43.5214 4.63038 409.363
276 1 -54.215 0.347646 402.891 -54.215 4.7751 402.891
569 1 -51.2229 0.216172 409.103 -51.2229 4.64362 409.103
847 1 -55.9531 0.099543 415.072 -55.9531 4.527 415.072
272 1 -55.7751 0.312838 404.872 -55.7751 4.74029 404.872
3 1 -57.3411 3.38503 400.082 -57.3411 3.38503 400.082
35 1 -37.1988 0.337976 401.406 -37.1988 4.76543 401.406
598 1 -34.2329 0.220863 407.645 -34.2329 4.64832 407.645
850 1 -54.3753 0.139085 413.082 -54.3753 4.56654 413.082
304 1 -38.7857 0.310711 403.4 -38.7857 4.73816 403.4
301 1 -40.3657 0.275725 405.388 -40.3657 4.70318 405.388
269 1 -57.3441 0.273747 406.864 -57.3441 4.7012 406.864
314 1 -32.651 0.255215 405.663 -32.651 4.68267 405.663