ITEM: TIMESTEP
0
ITEM: NUMBER OF ATOMS
4630
ITEM: BOX BOUNDS xy xz yz pp pp pp
-5.6540988501800001e+01 9.9560020350000002e+01 0.0000000000000000e+00
0.0000000000000000e+00 4.4274527100805940e+00 0.0000000000000000e+00
3.8000000000000000e+02 5.0000000000000000e+02 0.0000000000000000e+00
ITEM: ATOMS id type x y z xu yu zu
27 1 -42.2428 2.64947 398.195 -42.2428 2.64947 398.195
36 1 -36.807 1.90124 397.899 -36.807 1.90124 397.899
31 1 -39.854 3.32255 398.48 -39.854 3.32255 398.48
22 1 -45.3055 4.07709 398.812 -45.3055 4.07709 398.812
20 1 -46.0533 1.86162 399.738 -46.0533 1.86162 399.738
40 1 -34.4206 2.57738 398.19 -34.4206 2.57738 398.19
34 1 -37.5389 4.10231 398.814 -37.5389 4.10231 398.814
17 1 -48.3721 1.09918 399.415 -48.3721 1.09918 399.415
9 1 -53.7505 1.77597 399.683 -53.7505 1.77597 399.683
43 1 -32.1071 3.35798 398.528 -32.1071 3.35798 398.528
12 1 -51.4735 2.62383 400.049 -51.4735 2.62383 400.049
5 1 -56.1322 1.15148 399.391 -56.1322 1.15148 399.391
29 1 -40.6277 1.09729 399.405 -40.6277 1.09729 399.405
853 1 -52.1372 3.05508 414.619 -52.1372 3.05508 414.619
873 1 -41.324 1.58318 414.013 -41.324 1.58318 414.013
865 1 -45.182 0.815148 415.683 -45.182 0.815148 415.683
1174 1 -32.808 2.2625 416.455 -32.808 2.2625 416.455
883 1 -35.9117 0.844536 413.715 -35.9117 0.844536 413.715
863 1 -46.7329 2.32046 414.315 -46.7329 2.32046 414.315
315 1 -32.0928 1.79498 401.886 -32.0928 1.79498 401.886
307 1 -36.7315 3.2354 404.552 -36.7315 3.2354 404.552
1150 1 -46.7201 0.774173 417.709 -46.7201 0.774173 417.709
855 1 -50.5878 1.54998 415.987 -50.5878 1.54998 415.987
310 1 -35.1932 3.26899 402.536 -35.1932 3.26899 402.536
871 1 -42.0931 3.7773 415.025 -42.0931 3.7773 415.025
16 1 -49.1316 3.30247 400.346 -49.1316 3.30247 400.346
309 1 -35.1737 1.73069 405.92 -35.1737 1.73069 405.92
1156 1 -43.6317 3.73735 417.05 -43.6317 3.73735 417.05
867 1 -44.4133 3.04899 414.67 -44.4133 3.04899 414.67
1159 1 -41.3119 0.038633 417.406 -41.3119 4.46609 417.406
1168 1 -35.9004 3.72904 417.107 -35.9004 3.72904 417.107
1170 1 -35.1299 1.53451 416.096 -35.1299 1.53451 416.096
594 1 -35.9427 3.9272 406.931 -35.9427 3.9272 406.931
37 1 -35.9765 2.56705 400.167 -35.9765 2.56705 400.167
851 1 -52.9051 0.82045 415.633 -52.9051 0.82045 415.633
857 1 -49.8196 3.78455 414.974 -49.8196 3.78455 414.974
592 1 -36.7116 1.69571 407.942 -36.7116 1.69571 407.942
849 1 -53.6732 3.01303 416.647 -53.6732 3.01303 416.647
877 1 -39.003 2.31125 414.369 -39.003 2.31125 414.369
1143 1 -51.3562 3.74267 417.001 -51.3562 3.74267 417.001
1140 1 -52.8937 3.69994 419.028 -52.8937 3.69994 419.028
845 1 -55.9897 2.28369 416.294 -55.9897 2.28369 416.294
875 1 -39.7725 0.0781187 415.381 -39.7725 4.50557 415.381
886 1 -34.3721 0.881786 411.693 -34.3721 0.881786 411.693
891 1 -31.2783 3.84078 411.043 -31.2783 3.84078 411.043
39 1 -34.4287 1.06902 401.522 -34.4287 1.06902 401.522
1177 1 -31.2568 0.757862 417.826 -31.2568 0.757862 417.826
1167 1 -36.6709 1.49592 418.119 -36.6709 1.49592 418.119
8 1 -54.5425 4.04368 400.723 -54.5425 4.04368 400.723
869 1 -42.8623 1.54372 416.038 -42.8623 1.54372 416.038
1136 1 -55.2103 2.96997 418.675 -55.2103 2.96997 418.675
1162 1 -39.7618 2.9612 418.774 -39.7618 2.9612 418.774
15 1 -49.9055 1.08593 401.402 -49.9055 1.08593 401.402
280 1 -51.4335 1.05552 403.422 -51.4335 1.05552 403.422
277 1 -52.9656 1.03001 405.444 -52.9656 1.03001 405.444
273 1 -54.4914 0.991322 407.473 -54.4914 0.991322 407.473
560 1 -56.0216 0.952297 409.502 -56.0216 0.952297 409.502
26 1 -42.1703 1.08569 401.44 -42.1703 1.08569 401.44
294 1 -43.7064 1.05659 403.477 -43.7064 1.05659 403.477
291 1 -45.239 1.01982 405.503 -45.239 1.01982 405.503
576 1 -46.7704 0.9812 407.528 -46.7704 0.9812 407.528
573 1 -48.3026 0.942646 409.552 -48.3026 0.942646 409.552
570 1 -49.8354 0.902817 411.579 -49.8354 0.902817 411.579
854 1 -51.3696 0.862015 413.606 -51.3696 0.862015 413.606
305 1 -37.4994 1.00454 405.561 -37.4994 1.00454 405.561
589 1 -39.0354 0.968751 407.584 -39.0354 0.968751 407.584
586 1 -40.5715 0.931875 409.607 -40.5715 0.931875 409.607
872 1 -42.1078 0.893995 411.632 -42.1078 0.893995 411.632
599 1 -32.8324 0.917963 409.672 -32.8324 0.917963 409.672
4 1 -56.0875 4.05299 402.692 -56.0875 4.05299 402.692
1152 1 -45.951 3.0085 416.696 -45.951 3.0085 416.696
19 1 -46.83 4.04743 400.758 -46.83 4.04743 400.758
286 1 -48.3545 4.01263 402.753 -48.3545 4.01263 402.753
282 1 -49.8783 3.98022 404.783 -49.8783 3.98022 404.783
279 1 -51.409 3.94909 406.81 -51.409 3.94909 406.81
565 1 -52.9383 3.9118 408.84 -52.9383 3.9118 408.84
563 1 -54.4701 3.87264 410.869 -54.4701 3.87264 410.869
846 1 -56.0036 3.83223 412.898 -56.0036 3.83223 412.898
32 1 -39.0805 4.04715 400.815 -39.0805 4.04715 400.815
300 1 -40.6166 4.01413 402.827 -40.6166 4.01413 402.827
297 1 -42.1494 3.97873 404.848 -42.1494 3.97873 404.848
293 1 -43.6823 3.94244 406.871 -43.6823 3.94244 406.871
578 1 -45.2156 3.90455 408.896 -45.2156 3.90455 408.896
575 1 -46.7495 3.8657 410.921 -46.7495 3.8657 410.921
860 1 -48.2841 3.82562 412.947 -48.2841 3.82562 412.947
591 1 -37.4803 3.89133 408.953 -37.4803 3.89133 408.953
588 1 -39.0175 3.85429 410.976 -39.0175 3.85429 410.976
874 1 -40.5551 3.81627 413 -40.5551 3.81627 413
10 1 -52.9948 2.55304 402.06 -52.9948 2.55304 402.06
274 1 -54.5269 2.54164 404.071 -54.5269 2.54164 404.071
271 1 -56.0449 2.49893 406.107 -56.0449 2.49893 406.107
24 1 -43.7508 2.6016 400.132 -43.7508 2.6016 400.132
21 1 -45.2757 2.56127 402.118 -45.2757 2.56127 402.118
288 1 -46.7982 2.52306 404.136 -46.7982 2.52306 404.136
285 1 -48.3254 2.48319 406.159 -48.3254 2.48319 406.159
571 1 -49.8559 2.4461 408.183 -49.8559 2.4461 408.183
568 1 -51.3869 2.40711 410.21 -51.3869 2.40711 410.21
852 1 -52.9197 2.36699 412.238 -52.9197 2.36699 412.238
848 1 -54.4541 2.32599 414.265 -54.4541 2.32599 414.265
306 1 -37.5204 2.5401 402.172 -37.5204 2.5401 402.172
302 1 -39.0572 2.50826 404.19 -39.0572 2.50826 404.19
299 1 -40.5916 2.47326 406.214 -40.5916 2.47326 406.214
583 1 -42.1262 2.43695 408.239 -42.1262 2.43695 408.239
581 1 -43.6612 2.39927 410.264 -43.6612 2.39927 410.264
866 1 -45.1968 2.36047 412.289 -45.1968 2.36047 412.289
880 1 -37.4643 2.34939 412.346 -37.4643 2.34939 412.346
312 1 -33.6347 1.76404 403.9 -33.6347 1.76404 403.9
13 1 -50.6627 3.2804 402.391 -50.6627 3.2804 402.391
278 1 -52.1995 3.25742 404.425 -52.1995 3.25742 404.425
275 1 -53.7275 3.22474 406.456 -53.7275 3.22474 406.456
562 1 -55.2558 3.18549 408.488 -55.2558 3.18549 408.488
1166 1 -37.4415 3.69005 419.13 -37.4415 3.69005 419.13
889 1 -32.0487 1.60904 412.053 -32.0487 1.60904 412.053
28 1 -41.4053 3.3145 400.459 -41.4053 3.3145 400.459
296 1 -42.9422 3.28591 402.469 -42.9422 3.28591 402.469
292 1 -44.4738 3.2523 404.492 -44.4738 3.2523 404.492
289 1 -46.0046 3.21444 406.516 -46.0046 3.21444 406.516
574 1 -47.5364 3.17584 408.54 -47.5364 3.17584 408.54
572 1 -49.0689 3.13667 410.566 -49.0689 3.13667 410.566
856 1 -50.6023 3.09625 412.592 -50.6023 3.09625 412.592
303 1 -38.2678 3.2004 406.572 -38.2678 3.2004 406.572
587 1 -39.8035 3.16411 408.595 -39.8035 3.16411 408.595
584 1 -41.3396 3.12677 410.619 -41.3396 3.12677 410.619
870 1 -42.8762 3.0884 412.644 -42.8762 3.0884 412.644
6 1 -55.3246 1.85077 401.673 -55.3246 1.85077 401.673
890 1 -31.2664 2.29978 414.435 -31.2664 2.29978 414.435
18 1 -47.5874 1.81708 401.752 -47.5874 1.81708 401.752
284 1 -49.1131 1.78384 403.774 -49.1131 1.78384 403.774
281 1 -50.6439 1.75211 405.799 -50.6439 1.75211 405.799
567 1 -52.1737 1.71743 407.826 -52.1737 1.71743 407.826
564 1 -53.704 1.67862 409.855 -53.704 1.67862 409.855
561 1 -55.2368 1.63894 411.884 -55.2368 1.63894 411.884
33 1 -38.3242 1.85144 399.831 -38.3242 1.85144 399.831
30 1 -39.8561 1.81437 401.811 -39.8561 1.81437 401.811
298 1 -41.3836 1.78206 403.833 -41.3836 1.78206 403.833
295 1 -42.9158 1.74702 405.859 -42.9158 1.74702 405.859
580 1 -44.4489 1.70985 407.883 -44.4489 1.70985 407.883
577 1 -45.9825 1.67149 409.909 -45.9825 1.67149 409.909
862 1 -47.5167 1.63207 411.934 -47.5167 1.63207 411.934
590 1 -38.2489 1.65923 409.965 -38.2489 1.65923 409.965
876 1 -39.7863 1.62168 411.988 -39.7863 1.62168 411.988
1163 1 -38.9916 0.767319 417.762 -38.9916 0.767319 417.762
1153 1 -45.1708 3.69645 419.076 -45.1708 3.69645 419.076
311 1 -34.4036 3.96158 404.911 -34.4036 3.96158 404.911
42 1 -32.8917 1.10707 399.545 -32.8917 1.10707 399.545
1135 1 -55.9792 0.734367 419.689 -55.9792 0.734367 419.689
1171 1 -34.3497 2.22438 418.477 -34.3497 2.22438 418.477
1139 1 -53.6628 1.46453 420.042 -53.6628 1.46453 420.042
601 1 -32.0624 3.14931 408.662 -32.0624 3.14931 408.662
313 1 -32.8615 3.99488 402.89 -32.8615 3.99488 402.89
858 1 -49.0517 1.59145 413.96 -49.0517 1.59145 413.96
868 1 -43.6446 0.85511 413.657 -43.6446 0.85511 413.657
1147 1 -49.0385 0.0448259 417.355 -49.0385 4.47228 417.355
593 1 -35.9259 2.38657 410.323 -35.9259 2.38657 410.323
308 1 -35.9625 1.03803 403.54 -35.9625 1.03803 403.54
861 1 -47.5012 0.0863302 415.328 -47.5012 4.51378 415.328
1158 1 -42.0817 2.23228 418.418 -42.0817 2.23228 418.418
884 1 -35.1419 3.07701 412.704 -35.1419 3.07701 412.704
881 1 -36.6815 3.03929 414.727 -36.6815 3.03929 414.727
885 1 -34.3596 3.76721 415.085 -34.3596 3.76721 415.085
859 1 -48.2697 2.27941 416.341 -48.2697 2.27941 416.341
596 1 -34.3874 2.42261 408.302 -34.3874 2.42261 408.302
879 1 -37.4515 0.80636 415.738 -37.4515 0.80636 415.738
1172 1 -33.5788 0.029816 417.466 -33.5788 4.45727 417.466
1154 1 -44.4011 1.50329 418.063 -44.4011 1.50329 418.063
887 1 -33.5893 1.57224 414.074 -33.5893 1.57224 414.074
597 1 -33.6023 3.11374 410.683 -33.6023 3.11374 410.683
1161 1 -40.5421 2.27222 416.393 -40.5421 2.27222 416.393
1138 1 -54.4416 0.777902 417.661 -54.4416 0.777902 417.661
1149 1 -47.4894 2.96707 418.722 -47.4894 2.96707 418.722
41 1 -33.6516 3.30149 400.528 -33.6516 3.30149 400.528
888 1 -32.819 3.80449 413.064 -32.819 3.80449 413.064
1165 1 -38.2215 3.00067 416.75 -38.2215 3.00067 416.75
1141 1 -52.1248 1.50769 418.014 -52.1248 1.50769 418.014
1145 1 -49.8074 2.23748 418.368 -49.8074 2.23748 418.368
600 1 -32.8482 2.4573 406.282 -32.8482 2.4573 406.282
1148 1 -48.2588 0.732299 419.735 -48.2588 0.732299 419.735
882 1 -36.6951 0.154378 411.334 -36.6951 4.58183 411.334
1157 1 -42.8517 4.4257 419.431 -42.8517 4.4257 419.431
1144 1 -50.5766 4.42992 419.382 -50.5766 4.42992 419.382
602 1 -31.2921 0.952888 407.653 -31.2921 0.952888 407.653
1755 1 -30.4696 2.79029 426.986 -30.4696 2.79029 426.986
1460 1 -35.1141 2.87509 422.879 -35.1141 2.87509 422.879
2308 1 -43.596 3.31111 437.407 -43.596 3.31111 437.407
2316 1 -38.9669 1.89564 434.721 -38.9669 1.89564 434.721
2312 1 -41.2799 4.04376 437.76 -41.2799 4.04376 437.76
1464 1 -32.7936 3.6042 423.237 -32.7936 3.6042 423.237
1461 1 -34.3425 0.681044 421.868 -34.3425 0.681044 421.868
2039 1 -32.7875 3.40094 433.408 -32.7875 3.40094 433.408
2613 1 -34.3316 1.81421 438.822 -34.3316 1.81421 438.822
1467 1 -30.4726 4.33305 423.597 -30.4726 4.33305 423.597
2603 1 -39.7344 2.54064 439.127 -39.7344 2.54064 439.127
1443 1 -44.392 4.38443 421.456 -44.392 4.38443 421.456
1748 1 -34.3377 3.56483 425.259 -34.3377 3.56483 425.259
2023 1 -41.2838 1.16351 434.367 -41.2838 1.16351 434.367
2310 1 -42.0502 1.80782 438.774 -42.0502 1.80782 438.774
1151 1 -45.9405 1.46194 420.089 -45.9405 1.46194 420.089
2303 1 -46.6825 0.342551 438.068 -46.6825 0.342551 438.068
2299 1 -48.999 4.03773 437.715 -48.999 4.03773 437.715
2033 1 -35.8779 0.43512 434.064 -35.8779 0.43512 434.064
1433 1 -49.7982 0.689589 421.762 -49.7982 0.689589 421.762
1430 1 -51.3381 0.646136 423.789 -51.3381 0.646136 423.789
1426 1 -52.8786 0.60211 425.816 -52.8786 0.60211 425.816
1713 1 -54.4196 0.557733 427.844 -54.4196 0.557733 427.844
1710 1 -55.9611 0.513251 429.871 -55.9611 0.513251 429.871
2330 1 -30.4701 2.58828 437.155 -30.4701 2.58828 437.155
1160 1 -40.5322 0.727419 419.786 -40.5322 0.727419 419.786
1447 1 -42.0731 0.686663 421.811 -42.0731 0.686663 421.811
1444 1 -43.6144 0.645065 423.836 -43.6144 0.645065 423.836
1730 1 -45.156 0.602654 425.862 -45.156 0.602654 425.862
1727 1 -46.6976 0.5595 427.888 -46.6976 0.5595 427.888
1724 1 -48.2392 0.515726 429.915 -48.2392 0.515726 429.915
2008 1 -49.7807 0.47151 431.942 -49.7807 0.47151 431.942
2006 1 -51.3219 0.427061 433.969 -51.3219 0.427061 433.969
1458 1 -35.8858 0.641489 423.891 -35.8858 0.641489 423.891
1743 1 -37.4292 0.60113 425.914 -37.4292 0.60113 425.914
1740 1 -38.9726 0.55993 427.938 -38.9726 0.55993 427.938
2026 1 -40.5158 0.517874 429.962 -40.5158 0.517874 429.962
2022 1 -42.0585 0.474988 431.988 -42.0585 0.474988 431.988
2019 1 -43.6007 0.431361 434.014 -43.6007 0.431361 434.014
2309 1 -42.8256 1.11957 436.394 -42.8256 1.11957 436.394
1137 1 -54.4322 3.65639 421.056 -54.4322 3.65639 421.056
1421 1 -55.9715 3.61219 423.084 -55.9715 3.61219 423.084
1439 1 -46.7104 3.65466 421.102 -46.7104 3.65466 421.102
1435 1 -48.2506 3.61205 423.129 -48.2506 3.61205 423.129
1432 1 -49.7912 3.5687 425.155 -49.7912 3.5687 425.155
1719 1 -51.3321 3.52477 427.183 -51.3321 3.52477 427.183
1716 1 -52.8733 3.48046 429.21 -52.8733 3.48046 429.21
2001 1 -54.4148 3.43601 431.237 -54.4148 3.43601 431.237
1998 1 -55.9565 3.39165 433.264 -55.9565 3.39165 433.264
2323 1 -34.3326 3.35953 435.431 -34.3326 3.35953 435.431
1453 1 -38.983 3.65022 421.154 -38.983 3.65022 421.154
1450 1 -40.5248 3.60957 423.178 -40.5248 3.60957 423.178
1446 1 -42.0669 3.56808 425.203 -42.0669 3.56808 425.203
1732 1 -43.609 3.52578 427.228 -43.609 3.52578 427.228
1729 1 -45.151 3.48271 429.254 -45.151 3.48271 429.254
2014 1 -46.6929 3.43899 431.281 -46.6929 3.43899 431.281
2011 1 -48.2344 3.39479 433.308 -48.2344 3.39479 433.308
1745 1 -35.8818 3.52466 427.282 -35.8818 3.52466 427.282
1742 1 -37.4259 3.48364 429.305 -37.4259 3.48364 429.305
2028 1 -38.9695 3.44173 431.329 -38.9695 3.44173 431.329
2025 1 -40.5126 3.39894 433.354 -40.5126 3.39894 433.354
1427 1 -52.8851 2.15118 422.423 -52.8851 2.15118 422.423
1424 1 -54.4251 2.10706 424.45 -54.4251 2.10706 424.45
1711 1 -55.9658 2.0626 426.478 -55.9658 2.0626 426.478
2322 1 -35.1047 1.12469 436.443 -35.1047 1.12469 436.443
1750 1 -32.7899 2.06085 426.628 -32.7899 2.06085 426.628
1155 1 -43.6218 2.19144 420.443 -43.6218 2.19144 420.443
1441 1 -45.1623 2.14975 422.469 -45.1623 2.14975 422.469
1438 1 -46.7032 2.10724 424.495 -46.7032 2.10724 424.495
1725 1 -48.2443 2.06399 426.522 -48.2443 2.06399 426.522
1722 1 -49.7856 2.02014 428.549 -49.7856 2.02014 428.549
1718 1 -51.327 1.97589 430.576 -51.327 1.97589 430.576
2003 1 -52.8684 1.93146 432.603 -52.8684 1.93146 432.603
2000 1 -54.4097 1.88706 434.63 -54.4097 1.88706 434.63
1459 1 -35.8918 2.18547 420.499 -35.8918 2.18547 420.499
1455 1 -37.4342 2.14577 422.522 -37.4342 2.14577 422.522
1452 1 -38.9768 2.10524 424.546 -38.9768 2.10524 424.546
1737 1 -40.5196 2.06389 426.57 -40.5196 2.06389 426.57
1735 1 -42.0622 2.0217 428.595 -42.0622 2.0217 428.595
2020 1 -43.6047 1.97872 430.621 -43.6047 1.97872 430.621
2017 1 -45.1467 1.93506 432.647 -45.1467 1.93506 432.647
2034 1 -35.8794 1.98008 430.673 -35.8794 1.98008 430.673
2031 1 -37.4236 1.93833 432.696 -37.4236 1.93833 432.696
2029 1 -38.1954 4.13083 433.709 -38.1954 4.13083 433.709
1146 1 -49.0284 2.92477 420.749 -49.0284 2.92477 420.749
1431 1 -50.5681 2.88167 422.776 -50.5681 2.88167 422.776
1428 1 -52.1083 2.83791 424.803 -52.1083 2.83791 424.803
1715 1 -53.649 2.79368 426.83 -53.649 2.79368 426.83
1712 1 -55.1903 2.74922 428.857 -55.1903 2.74922 428.857
1747 1 -34.3348 2.02091 428.65 -34.3348 2.02091 428.65
1449 1 -41.3026 2.92087 420.798 -41.3026 2.92087 420.798
1445 1 -42.8438 2.87969 422.823 -42.8438 2.87969 422.823
1442 1 -44.3852 2.83768 424.849 -44.3852 2.83768 424.849
1728 1 -45.9268 2.79489 426.875 -45.9268 2.79489 426.875
1726 1 -47.4684 2.75141 428.901 -47.4684 2.75141 428.901
2010 1 -49.0099 2.70739 430.928 -49.0099 2.70739 430.928
2007 1 -50.5513 2.66303 432.955 -50.5513 2.66303 432.955
1456 1 -36.6575 2.83514 424.902 -36.6575 2.83514 424.902
1741 1 -38.2009 2.79436 426.926 -38.2009 2.79436 426.926
1738 1 -39.7442 2.75273 428.95 -39.7442 2.75273 428.95
2024 1 -41.2872 2.71026 430.975 -41.2872 2.71026 430.975
2021 1 -42.8297 2.66699 433 -42.8297 2.66699 433
2035 1 -35.1057 2.66977 433.052 -35.1057 2.66977 433.052
1754 1 -31.245 2.10001 424.607 -31.245 2.10001 424.607
1423 1 -55.2017 1.42063 422.07 -55.2017 1.42063 422.07
2044 1 -29.6956 1.93798 432.755 -29.6956 1.93798 432.755
1437 1 -47.4805 1.41973 422.115 -47.4805 1.41973 422.115
1434 1 -49.0208 1.37673 424.142 -49.0208 1.37673 424.142
1721 1 -50.5616 1.33307 426.169 -50.5616 1.33307 426.169
1717 1 -52.1027 1.28892 428.196 -52.1027 1.28892 428.196
1714 1 -53.6441 1.24451 430.223 -53.6441 1.24451 430.223
1999 1 -55.1856 1.20008 432.25 -55.1856 1.20008 432.25
1164 1 -38.2122 1.45651 420.142 -38.2122 1.45651 420.142
1451 1 -39.7539 1.41627 422.166 -39.7539 1.41627 422.166
1448 1 -41.2958 1.3752 424.191 -41.2958 1.3752 424.191
1734 1 -42.8379 1.3333 426.216 -42.8379 1.3333 426.216
1731 1 -44.38 1.29061 428.241 -44.38 1.29061 428.241
2016 1 -45.922 1.2472 430.268 -45.922 1.2472 430.268
2012 1 -47.4637 1.20321 432.294 -47.4637 1.20321 432.294
2009 1 -49.0049 1.15884 434.321 -49.0049 1.15884 434.321
1746 1 -35.1097 1.33112 426.27 -35.1097 1.33112 426.27
1744 1 -36.6539 1.29053 428.293 -36.6539 1.29053 428.293
2030 1 -38.1978 1.24907 430.317 -38.1978 1.24907 430.317
2027 1 -39.7412 1.20671 432.342 -39.7412 1.20671 432.342
2325 1 -33.5602 1.16664 434.419 -33.5602 1.16664 434.419
1749 1 -33.5623 4.25471 427.639 -33.5623 4.25471 427.639
1425 1 -53.655 4.34291 423.436 -53.655 4.34291 423.436
1736 1 -41.2909 4.25662 427.583 -41.2909 4.25662 427.583
1142 1 -51.3459 2.19471 420.395 -51.3459 2.19471 420.395
1720 1 -50.5563 4.21178 429.562 -50.5563 4.21178 429.562
2005 1 -52.0977 4.16741 431.589 -52.0977 4.16741 431.589
2002 1 -53.6391 4.12297 433.616 -53.6391 4.12297 433.616
1169 1 -35.1208 4.41875 419.488 -35.1208 4.41875 419.488
1723 1 -49.0149 4.25586 427.535 -49.0149 4.25586 427.535
1440 1 -45.9327 4.34232 423.482 -45.9327 4.34232 423.482
1733 1 -42.8335 4.21403 429.608 -42.8335 4.21403 429.608
2018 1 -44.3757 4.17069 431.634 -44.3757 4.17069 431.634
2015 1 -45.9175 4.12673 433.661 -45.9175 4.12673 433.661
2036 1 -35.1072 4.21434 429.661 -35.1072 4.21434 429.661
2032 1 -36.6516 4.17305 431.684 -36.6516 4.17305 431.684
2326 1 -32.7876 1.85663 436.798 -32.7876 1.85663 436.798
1752 1 -32.0174 4.29425 425.617 -32.0174 4.29425 425.617
1457 1 -36.663 4.37945 421.511 -36.663 4.37945 421.511
2043 1 -30.4685 1.24741 430.376 -30.4685 1.24741 430.376
2286 1 -55.9509 1.84292 436.657 -55.9509 1.84292 436.657
2319 1 -36.6477 1.08165 438.468 -36.6477 1.08165 438.468
1436 1 -47.4737 4.29942 425.508 -47.4737 4.29942 425.508
1422 1 -55.1954 4.29859 425.464 -55.1954 4.29859 425.464
1173 1 -32.7995 0.71983 419.847 -32.7995 0.71983 419.847
2293 1 -52.086 1.06984 438.376 -52.086 1.06984 438.376
2289 1 -54.4035 0.338369 438.023 -54.4035 0.338369 438.023
2295 1 -50.5386 3.99314 439.742 -50.5386 3.99314 439.742
1465 1 -32.0216 1.40987 422.227 -32.0216 1.40987 422.227
2315 1 -38.9638 0.348991 438.114 -38.9638 0.348991 438.114
2331 1 -30.4689 4.13178 433.765 -30.4689 4.13178 433.765
2297 1 -49.7689 1.80169 438.729 -49.7689 1.80169 438.729
2324 1 -33.5598 4.0493 437.81 -33.5598 4.0493 437.81
2306 1 -44.3662 1.0751 438.421 -44.3662 1.0751 438.421
2285 1 -55.9436 0.294548 440.05 -55.9436 0.294548 440.05
1462 1 -33.5656 1.37088 424.248 -33.5656 1.37088 424.248
1751 1 -32.0153 2.75099 429.007 -32.0153 2.75099 429.007
2329 1 -31.2421 1.89786 434.776 -31.2421 1.89786 434.776
2042 1 -31.2417 3.44131 431.386 -31.2417 3.44131 431.386
2041 1 -32.0147 1.20752 432.397 -32.0147 1.20752 432.397
2593 1 -45.1361 3.26645 439.434 -45.1361 3.26645 439.434
2328 1 -31.2429 0.353871 438.166 -31.2429 0.353871 438.166
2301 1 -47.4523 2.53391 439.081 -47.4523 2.53391 439.081
1466 1 -31.2497 3.64282 421.216 -31.2497 3.64282 421.216
2298 1 -49.7754 3.35031 435.335 -49.7754 3.35031 435.335
2321 1 -35.8764 3.31703 437.455 -35.8764 3.31703 437.455
2313 1 -40.5092 1.85208 436.747 -40.5092 1.85208 436.747
2294 1 -51.3159 3.30577 437.362 -51.3159 3.30577 437.362
2304 1 -45.9124 2.57861 437.054 -45.9124 2.57861 437.054
2300 1 -48.2289 1.84632 436.701 -48.2289 1.84632 436.701
2290 1 -53.6332 2.57417 437.009 -53.6332 2.57417 437.009
2318 1 -37.4215 0.392527 436.088 -37.4215 0.392527 436.088
2327 1 -32.015 4.09112 435.787 -32.015 4.09112 435.787
2004 1 -52.0924 2.61855 434.982 -52.0924 2.61855 434.982
2013 1 -46.6881 1.89085 434.674 -46.6881 1.89085 434.674
2288 1 -55.1803 4.07867 435.643 -55.1803 4.07867 435.643
2037 1 -34.3333 0.476706 432.04 -34.3333 0.476706 432.04
1739 1 -39.7482 4.2984 425.558 -39.7482 4.2984 425.558
1753 1 -31.2424 0.557015 427.997 -31.2424 0.557015 427.997
2307 1 -44.3715 2.62304 435.027 -44.3715 2.62304 435.027
2314 1 -39.7382 4.08769 435.734 -39.7382 4.08769 435.734
2040 1 -32.7881 0.51731 430.018 -32.7881 0.51731 430.018
2320 1 -36.6499 2.62767 435.076 -36.6499 2.62767 435.076
2292 1 -52.8629 0.382608 435.996 -52.8629 0.382608 435.996
2311 1 -42.0548 3.35535 435.38 -42.0548 3.35535 435.38
2302 1 -47.4586 4.08234 435.688 -47.4586 4.08234 435.688
2296 1 -50.5457 1.11431 436.349 -50.5457 1.11431 436.349
1463 1 -33.571 2.91426 420.857 -33.571 2.91426 420.857
2287 1 -55.1736 2.53012 439.036 -55.1736 2.53012 439.036
2291 1 -52.8559 3.26142 439.389 -52.8559 3.26142 439.389
2317 1 -38.1929 2.5846 437.101 -38.1929 2.5846 437.101
2038 1 -33.5608 2.71085 431.029 -33.5608 2.71085 431.029
2305 1 -45.142 0.387146 436.04 -45.142 0.387146 436.04
2332 1 -29.697 0.394922 436.144 -29.697 0.394922 436.144
1468 1 -30.4779 1.44815 420.206 -30.4779 1.44815 420.206
1454 1 -38.2055 4.33934 423.534 -38.2055 4.33934 423.534
1429 1 -52.1154 4.38676 421.409 -52.1154 4.38676 421.409
1175 1 -32.0281 2.95267 418.836 -32.0281 2.95267 418.836
2616 1 -32.0143 1.00099 442.57 -32.0143 1.00099 442.57
2901 1 -33.5548 0.956705 444.596 -33.5548 0.956705 444.596
2907 1 -30.4705 3.92591 443.937 -30.4705 3.92591 443.937
3194 1 -31.2351 0.142174 448.345 -31.2351 0.142174 448.345
2587 1 -48.2219 0.297823 440.095 -48.2219 0.297823 440.095
2597 1 -42.8202 3.99922 439.787 -42.8202 3.99922 439.787
2584 1 -49.7603 0.253226 442.123 -49.7603 0.253226 442.123
2581 1 -51.2978 0.209021 444.15 -51.2978 0.209021 444.15
2868 1 -52.8344 0.165456 446.177 -52.8344 0.165456 446.177
2865 1 -54.3702 0.122746 448.204 -54.3702 0.122746 448.204
2601 1 -40.5046 0.30468 440.141 -40.5046 0.30468 440.141
2598 1 -42.0436 0.259849 442.168 -42.0436 0.259849 442.168
2885 1 -43.581 0.214818 444.197 -43.581 0.214818 444.197
2882 1 -45.1166 0.169936 446.225 -45.1166 0.169936 446.225
2879 1 -46.6507 0.125552 448.254 -46.6507 0.125552 448.254
2612 1 -34.3292 0.267925 442.215 -34.3292 0.267925 442.215
2898 1 -35.8688 0.223296 444.242 -35.8688 0.223296 444.242
2895 1 -37.4057 0.177995 446.271 -37.4057 0.177995 446.271
3180 1 -38.9402 0.13247 448.3 -38.9402 0.13247 448.3
2576 1 -54.3952 3.21748 441.416 -54.3952 3.21748 441.416
2574 1 -55.9339 3.17414 443.443 -55.9339 3.17414 443.443
2589 1 -46.6749 3.22163 441.462 -46.6749 3.22163 441.462
2586 1 -48.2125 3.17692 443.49 -48.2125 3.17692 443.49
2874 1 -49.7489 3.13262 445.518 -49.7489 3.13262 445.518
2871 1 -51.2842 3.08898 447.545 -51.2842 3.08898 447.545
3155 1 -52.8188 3.04625 449.572 -52.8188 3.04625 449.572
2607 1 -37.4187 3.27349 439.481 -37.4187 3.27349 439.481
2604 1 -38.9591 3.22911 441.508 -38.9591 3.22911 441.508
2600 1 -40.4976 3.18415 443.536 -40.4976 3.18415 443.536
2887 1 -42.034 3.13899 445.564 -42.034 3.13899 445.564
2884 1 -43.5686 3.094 447.593 -43.5686 3.094 447.593
3168 1 -45.1015 3.04959 449.623 -45.1015 3.04959 449.623
2900 1 -34.3239 3.14791 445.61 -34.3239 3.14791 445.61
2897 1 -35.86 3.1024 447.639 -35.86 3.1024 447.639
2582 1 -51.3081 1.75721 440.756 -51.3081 1.75721 440.756
2579 1 -52.8466 1.71314 442.783 -52.8466 1.71314 442.783
2866 1 -54.3843 1.66968 444.81 -54.3843 1.66968 444.81
2578 1 -53.6256 1.02566 440.403 -53.6256 1.02566 440.403
2595 1 -43.5898 1.76308 440.801 -43.5898 1.76308 440.801
2592 1 -45.1279 1.71816 442.829 -45.1279 1.71816 442.829
2880 1 -46.6646 1.67336 444.857 -46.6646 1.67336 444.857
2877 1 -48.1999 1.629 446.886 -48.1999 1.629 446.886
2873 1 -49.734 1.58537 448.914 -49.734 1.58537 448.914
2609 1 -35.8738 1.77066 440.848 -35.8738 1.77066 440.848
2606 1 -37.4138 1.72617 442.875 -37.4138 1.72617 442.875
2892 1 -38.9516 1.68106 444.903 -38.9516 1.68106 444.903
2890 1 -40.4871 1.63572 446.932 -40.4871 1.63572 446.932
3174 1 -42.0205 1.5906 448.962 -42.0205 1.5906 448.962
2618 1 -31.243 3.23639 441.557 -31.243 3.23639 441.557
2585 1 -48.9912 2.48922 441.109 -48.9912 2.48922 441.109
2583 1 -50.5292 2.44478 443.137 -50.5292 2.44478 443.137
2870 1 -52.0662 2.40087 445.164 -52.0662 2.40087 445.164
2867 1 -53.6024 2.35771 447.191 -53.6024 2.35771 447.191
2863 1 -55.1379 2.3155 449.217 -55.1379 2.3155 449.217
2599 1 -41.2743 2.49604 441.154 -41.2743 2.49604 441.154
2596 1 -42.8125 2.45106 443.182 -42.8125 2.45106 443.182
2883 1 -44.349 2.40606 445.211 -44.349 2.40606 445.211
2881 1 -45.8839 2.36139 447.24 -45.8839 2.36139 447.24
3164 1 -47.4173 2.31738 449.268 -47.4173 2.31738 449.268
2610 1 -35.0993 2.45945 443.229 -35.0993 2.45945 443.229
2896 1 -36.6376 2.41443 445.256 -36.6376 2.41443 445.256
2893 1 -38.1733 2.36896 447.285 -38.1733 2.36896 447.285
3178 1 -39.7065 2.3235 449.315 -39.7065 2.3235 449.315
2575 1 -55.1646 0.981994 442.43 -55.1646 0.981994 442.43
2591 1 -45.9056 1.03032 440.448 -45.9056 1.03032 440.448
2588 1 -47.4438 0.985514 442.476 -47.4438 0.985514 442.476
2876 1 -48.9808 0.940975 444.504 -48.9808 0.940975 444.504
2872 1 -50.5167 0.896976 446.532 -50.5167 0.896976 446.532
2869 1 -52.0516 0.853767 448.559 -52.0516 0.853767 448.559
2605 1 -38.1891 1.03766 440.494 -38.1891 1.03766 440.494
2602 1 -39.7286 0.992952 442.521 -39.7286 0.992952 442.521
2889 1 -41.266 0.947845 444.55 -41.266 0.947845 444.55
2886 1 -42.8015 0.90272 446.579 -42.8015 0.90272 446.579
3170 1 -44.3352 0.857973 448.608 -44.3352 0.857973 448.608
2899 1 -35.0924 0.911485 446.624 -35.0924 0.911485 446.624
3184 1 -36.627 0.865803 448.654 -36.627 0.865803 448.654
2580 1 -52.0774 3.94884 441.77 -52.0774 3.94884 441.77
2577 1 -53.6155 3.90504 443.797 -53.6155 3.90504 443.797
2864 1 -55.1529 3.86197 445.823 -55.1529 3.86197 445.823
2862 1 -55.9214 1.62703 446.836 -55.9214 1.62703 446.836
2594 1 -44.359 3.95435 441.815 -44.359 3.95435 441.815
2590 1 -45.8964 3.90945 443.843 -45.8964 3.90945 443.843
2878 1 -47.4324 3.86484 445.872 -47.4324 3.86484 445.872
2875 1 -48.9671 3.82081 447.9 -48.9671 3.82081 447.9
3159 1 -50.5007 3.77763 449.927 -50.5007 3.77763 449.927
2611 1 -35.1029 4.00629 439.835 -35.1029 4.00629 439.835
2608 1 -36.6441 3.96224 441.861 -36.6441 3.96224 441.861
2894 1 -38.183 3.91739 443.889 -38.183 3.91739 443.889
2891 1 -39.7196 3.87212 445.917 -39.7196 3.87212 445.917
2888 1 -41.254 3.82683 447.947 -41.254 3.82683 447.947
2904 1 -32.0106 3.88144 445.964 -32.0106 3.88144 445.964
2621 1 -29.6986 3.27869 439.534 -29.6986 3.27869 439.534
2617 1 -32.0152 2.54659 439.178 -32.0152 2.54659 439.178
2614 1 -33.5584 2.5036 441.202 -33.5584 2.5036 441.202
2908 1 -29.6974 0.187514 446.318 -29.6974 0.187514 446.318
2619 1 -30.4711 1.04399 440.545 -30.4711 1.04399 440.545
2906 1 -30.4667 2.37871 447.331 -30.4667 2.37871 447.331
2905 1 -31.2409 1.6901 444.95 -31.2409 1.6901 444.95
2620 1 -29.6993 1.7339 442.925 -29.6993 1.7339 442.925
3190 1 -33.5473 3.83596 447.992 -33.5473 3.83596 447.992
2902 1 -32.7794 1.64506 446.978 -32.7794 1.64506 446.978
2903 1 -32.7849 3.19272 443.583 -32.7849 3.19272 443.583
2615 1 -32.7871 0.311523 440.19 -32.7871 0.311523 440.19
2909 1 -28.9272 2.42343 445.305 -28.9272 2.42343 445.305
14 1 -50.7596 0.42287 399.13 -50.7596 4.85032 399.13
7 1 -55.2656 3.37306 398.533 -55.2656 3.37306 398.533
25 1 -42.9823 0.422412 399.109 -42.9823 4.84986 399.109
38 1 -35.1913 0.352288 399.116 -35.1913 4.77974 399.116
23 1 -44.5084 0.36921 401.12 -44.5084 4.79666 401.12
287 1 -47.5617 0.288216 405.146 -47.5617 4.71567 405.146
878 1 -38.2336 0.116706 413.357 -38.2336 4.54416 413.357
579 1 -44.4289 0.166306 411.276 -44.4289 4.59376 411.276
585 1 -41.3587 0.241659 407.227 -41.3587 4.66911 407.227
290 1 -46.0364 0.327981 403.127 -46.0364 4.75543 403.127
11 1 -52.2357 0.360236 401.088 -52.2357 4.78769 401.088
595 1 -35.1567 0.191035 409.312 -35.1567 4.61849 409.312
283 1 -49.0907 0.250717 407.17 -49.0907 4.67817 407.17
582 1 -42.8936 0.204561 409.251 -42.8936 4.63201 409.251
276 1 -53.7694 0.341362 403.074 -53.7694 4.76881 403.074
569 1 -50.6212 0.213034 409.196 -50.6212 4.64049 409.196
847 1 -55.2218 0.0912778 415.279 -55.2218 4.51873 415.279
272 1 -55.2857 0.306346 405.092 -55.2857 4.7338 405.092
35 1 -36.7431 0.339845 401.147 -36.7431 4.7673 401.147
598 1 -33.6177 0.226457 407.292 -33.6177 4.65391 407.292
850 1 -53.6867 0.132896 413.251 -53.6867 4.56035 413.251
304 1 -38.2863 0.312407 403.177 -38.2863 4.73986 403.177
301 1 -39.8235 0.277642 405.202 -39.8235 4.70509 405.202
314 1 -32.0777 0.260586 405.272 -32.0777 4.68804 405.272
864 1 -45.9647 0.126897 413.302 -45.9647 4.55435 413.302
566 1 -52.153 0.17337 411.223 -52.153 4.60082 411.223
1176 1 -32.0372 0.0675221 415.445 -32.0372 4.49497 415.445
85 1 -6.55044 1.1521 395.881 -6.55044 1.1521 395.881
58 1 -23.5568 1.08748 397.627 -23.5568 1.08748 397.627
45 1 -31.3746 1.15692 397.614 -31.3746 1.15692 397.614
49 1 -28.9885 1.83253 397.907 -28.9885 1.83253 397.907
72 1 -15.0837 3.3507 396.779 -15.0837 3.3507 396.779
80 1 -9.62126 2.57805 396.484 -9.62126 2.57805 396.484
75 1 -12.7 4.02842 397.075 -12.7 4.02842 397.075
83 1 -7.29688 3.35184 396.791 -7.29688 3.35184 396.791
52 1 -26.6754 2.61297 398.246 -26.6754 2.61297 398.246
61 1 -21.2443 1.86831 397.968 -21.2443 1.86831 397.968
63 1 -20.5112 4.0947 397.054 -20.5112 4.0947 397.054
87 1 -4.94102 4.03104 397.098 -4.94102 4.03104 397.098
70 1 -15.8142 1.12456 397.693 -15.8142 1.12456 397.693