ITEM: TIMESTEP
0
ITEM: NUMBER OF ATOMS
4630
ITEM: BOX BOUNDS xy xz yz pp pp pp
-5.8540988501800001e+01 1.0156002035000000e+02 0.0000000000000000e+00
0.0000000000000000e+00 4.4274527100805940e+00 0.0000000000000000e+00
3.8000000000000000e+02 5.0000000000000000e+02 0.0000000000000000e+00
ITEM: ATOMS id type x y z xu yu zu
27 1 -42.8656 2.64393 398.412 -42.8656 2.64393 398.412
36 1 -37.4496 1.89428 398.326 -37.4496 1.89428 398.326
31 1 -40.4926 3.3119 398.787 -40.4926 3.3119 398.787
22 1 -45.9339 4.06905 398.911 -45.9339 4.06905 398.911
20 1 -46.7055 1.85495 399.812 -46.7055 1.85495 399.812
40 1 -35.0795 2.56518 398.708 -35.0795 2.56518 398.708
34 1 -38.2041 4.09618 399.216 -38.2041 4.09618 399.216
17 1 -49.0003 1.09054 399.394 -49.0003 1.09054 399.394
9 1 -54.3621 1.76779 399.454 -54.3621 1.76779 399.454
43 1 -32.7936 3.35073 399.141 -32.7936 3.35073 399.141
12 1 -52.1115 2.62091 399.913 -52.1115 2.62091 399.913
5 1 -56.7287 1.15056 399.073 -56.7287 1.15056 399.073
29 1 -41.2958 1.08791 399.685 -41.2958 1.08791 399.685
853 1 -53.2907 3.04965 414.482 -53.2907 3.04965 414.482
873 1 -42.508 1.56826 414.301 -42.508 1.56826 414.301
865 1 -46.4046 0.803157 415.822 -46.4046 0.803157 415.822
1174 1 -34.1228 2.24265 417.084 -34.1228 2.24265 417.084
883 1 -37.1144 0.826607 414.216 -37.1144 0.826607 414.216
863 1 -47.9005 2.30965 414.391 -47.9005 2.30965 414.391
315 1 -32.8994 1.78104 402.507 -32.8994 1.78104 402.507
307 1 -37.6075 3.22187 404.999 -37.6075 3.22187 404.999
1150 1 -48.005 0.763997 417.792 -48.005 0.763997 417.792
855 1 -51.7955 1.54339 415.913 -51.7955 1.54339 415.913
310 1 -36.0061 3.25661 403.037 -36.0061 3.25661 403.037
871 1 -43.3083 3.76287 415.285 -43.3083 3.76287 415.285
16 1 -49.7891 3.29527 400.298 -49.7891 3.29527 400.298
309 1 -36.1069 1.71537 406.431 -36.1069 1.71537 406.431
1156 1 -44.9091 3.72423 417.254 -44.9091 3.72423 417.254
867 1 -45.6044 3.03626 414.838 -45.6044 3.03626 414.838
1159 1 -42.6133 0.0237627 417.702 -42.6133 4.45122 417.702
1168 1 -37.2205 3.71077 417.617 -37.2205 3.71077 417.617
1170 1 -36.4194 1.51588 416.633 -36.4194 1.51588 416.633
594 1 -36.9074 3.91164 407.414 -36.9074 3.91164 407.414
37 1 -36.6986 2.55499 400.629 -36.6986 2.55499 400.629
851 1 -54.0904 0.816323 415.466 -54.0904 0.816323 415.466
857 1 -50.9958 3.77682 414.929 -50.9958 3.77682 414.929
592 1 -37.7076 1.67997 408.397 -37.7076 1.67997 408.397
849 1 -54.8901 3.0103 416.451 -54.8901 3.0103 416.451
877 1 -40.2116 2.2949 414.75 -40.2116 2.2949 414.75
1143 1 -52.5954 3.73732 416.898 -52.5954 3.73732 416.898
1140 1 -54.1953 3.69731 418.868 -54.1953 3.69731 418.868
845 1 -57.1846 2.28376 416.005 -57.1846 2.28376 416.005
875 1 -41.0121 0.0621678 415.734 -41.0121 4.48962 415.734
886 1 -35.513 0.863555 412.249 -35.513 0.863555 412.249
891 1 -32.4141 3.82127 411.719 -32.4141 3.82127 411.719
39 1 -35.21 1.05803 402.052 -35.21 1.05803 402.052
1177 1 -32.6275 0.737149 418.519 -32.6275 0.737149 418.519
1167 1 -38.0215 1.47806 418.6 -38.0215 1.47806 418.6
8 1 -55.1909 4.03788 400.466 -55.1909 4.03788 400.466
869 1 -44.1087 1.52989 416.27 -44.1087 1.52989 416.27
1136 1 -56.4896 2.97023 418.422 -56.4896 2.97023 418.422
1162 1 -41.1183 2.94533 419.135 -41.1183 2.94533 419.135
15 1 -50.5989 1.07805 401.326 -50.5989 1.07805 401.326
280 1 -52.1923 1.0482 403.293 -52.1923 1.0482 403.293
277 1 -53.79 1.0232 405.259 -53.79 1.0232 405.259
273 1 -55.3824 0.985799 407.231 -55.3824 0.985799 407.231
560 1 -56.9793 0.949071 409.203 -56.9793 0.949071 409.203
557 1 -58.5774 0.911525 411.172 -58.5774 0.911525 411.172
26 1 -42.9044 1.07529 401.666 -42.9044 1.07529 401.666
294 1 -44.5057 1.04609 403.649 -44.5057 1.04609 403.649
291 1 -46.1032 1.00954 405.62 -46.1032 1.00954 405.62
576 1 -47.6991 0.971053 407.589 -47.6991 0.971053 407.589
573 1 -49.2957 0.932974 409.558 -49.2957 0.932974 409.558
570 1 -50.8929 0.894319 411.527 -50.8929 0.894319 411.527
854 1 -52.4912 0.855419 413.497 -52.4912 0.855419 413.497
305 1 -38.4069 0.990554 405.98 -38.4069 0.990554 405.98
589 1 -40.0061 0.954244 407.947 -40.0061 0.954244 407.947
586 1 -41.6052 0.917301 409.916 -41.6052 0.917301 409.916
872 1 -43.2046 0.879804 411.884 -43.2046 0.879804 411.884
599 1 -33.9113 0.899693 410.284 -33.9113 0.899693 410.284
4 1 -56.7979 4.04877 402.38 -56.7979 4.04877 402.38
268 1 -58.3755 4.00334 404.375 -58.3755 4.00334 404.375
1152 1 -47.2048 2.99737 416.807 -47.2048 2.99737 416.807
19 1 -47.5157 4.04116 400.807 -47.5157 4.04116 400.807
286 1 -49.105 4.00518 402.743 -49.105 4.00518 402.743
282 1 -50.6937 3.97195 404.717 -50.6937 3.97195 404.717
279 1 -52.2896 3.94109 406.688 -52.2896 3.94109 406.688
565 1 -53.8848 3.90505 408.661 -53.8848 3.90505 408.661
563 1 -55.4824 3.86808 410.633 -55.4824 3.86808 410.633
846 1 -57.0811 3.83048 412.603 -57.0811 3.83048 412.603
32 1 -39.8107 4.03892 401.162 -39.8107 4.03892 401.162
300 1 -41.4098 4.00369 403.118 -41.4098 4.00369 403.118
297 1 -43.0063 3.96716 405.084 -43.0063 3.96716 405.084
293 1 -44.6032 3.9306 407.052 -44.6032 3.9306 407.052
578 1 -46.2004 3.89294 409.021 -46.2004 3.89294 409.021
575 1 -47.7983 3.85478 410.99 -47.7983 3.85478 410.99
860 1 -49.3967 3.816 412.959 -49.3967 3.816 412.959
591 1 -38.5077 3.87549 409.381 -38.5077 3.87549 409.381
588 1 -40.1077 3.83853 411.349 -40.1077 3.83853 411.349
874 1 -41.7079 3.80096 413.317 -41.7079 3.80096 413.317
10 1 -53.6985 2.54888 401.868 -53.6985 2.54888 401.868
274 1 -55.2951 2.53689 403.824 -55.2951 2.53689 403.824
271 1 -56.8804 2.495 405.803 -56.8804 2.495 405.803
558 1 101.624 2.45818 407.772 -58.4768 2.45818 407.772
24 1 -44.4308 2.59708 400.299 -44.4308 2.59708 400.299
21 1 -46.0193 2.5538 402.229 -46.0193 2.5538 402.229
288 1 -47.6064 2.51497 404.191 -47.6064 2.51497 404.191
285 1 -49.198 2.47451 406.158 -49.198 2.47451 406.158
571 1 -50.7931 2.4375 408.125 -50.7931 2.4375 408.125
568 1 -52.389 2.39957 410.094 -52.389 2.39957 410.094
852 1 -53.9867 2.36141 412.065 -53.9867 2.36141 412.065
848 1 -55.5855 2.32303 414.035 -55.5855 2.32303 414.035
306 1 -38.3063 2.52805 402.582 -38.3063 2.52805 402.582
302 1 -39.9071 2.49564 404.545 -39.9071 2.49564 404.545
299 1 -41.5052 2.46003 406.514 -41.5052 2.46003 406.514
583 1 -43.1035 2.42361 408.483 -43.1035 2.42361 408.483
581 1 -44.7021 2.38628 410.452 -44.7021 2.38628 410.452
866 1 -46.3011 2.3483 412.422 -46.3011 2.3483 412.422
880 1 -38.6108 2.33252 412.782 -38.6108 2.33252 412.782
312 1 -34.5048 1.7494 404.466 -34.5048 1.7494 404.466
2 1 -58.321 1.16578 400.992 -58.321 1.16578 400.992
13 1 -51.3878 3.27257 402.289 -51.3878 3.27257 402.289
278 1 -52.9907 3.25033 404.267 -52.9907 3.25033 404.267
275 1 -54.585 3.21841 406.242 -54.585 3.21841 406.242
562 1 -56.1802 3.18101 408.217 -56.1802 3.18101 408.217
559 1 -57.7783 3.14421 410.187 -57.7783 3.14421 410.187
1166 1 -38.8226 3.67267 419.584 -38.8226 3.67267 419.584
889 1 -33.2152 1.5896 412.702 -33.2152 1.5896 412.702
28 1 -42.1082 3.30451 400.711 -42.1082 3.30451 400.711
296 1 -43.7092 3.27568 402.669 -43.7092 3.27568 402.669
292 1 -45.3057 3.24191 404.637 -45.3057 3.24191 404.637
289 1 -46.9011 3.20418 406.605 -46.9011 3.20418 406.605
574 1 -48.4973 3.16585 408.574 -48.4973 3.16585 408.574
572 1 -50.0942 3.12749 410.542 -50.0942 3.12749 410.542
856 1 -51.6919 3.08862 412.512 -51.6919 3.08862 412.512
303 1 -39.2069 3.18612 406.964 -39.2069 3.18612 406.964
587 1 -40.8058 3.14952 408.931 -40.8058 3.14952 408.931
584 1 -42.4049 3.11233 410.9 -42.4049 3.11233 410.9
870 1 -44.0045 3.07458 412.869 -44.0045 3.07458 412.869
6 1 -56.0021 1.84617 401.388 -56.0021 1.84617 401.388
270 1 -57.5806 1.80873 403.381 -57.5806 1.80873 403.381
890 1 -32.5201 2.27943 415.119 -32.5201 2.27943 415.119
18 1 -48.3059 1.81002 401.769 -48.3059 1.81002 401.769
284 1 -49.8962 1.77574 403.736 -49.8962 1.77574 403.736
281 1 -51.4919 1.74389 405.705 -51.4919 1.74389 405.705
567 1 -53.0872 1.70992 407.676 -53.0872 1.70992 407.676
564 1 -54.6835 1.67288 409.647 -54.6835 1.67288 409.647
561 1 -56.2818 1.63572 411.618 -56.2818 1.63572 411.618
844 1 -57.8804 1.59744 413.588 -57.8804 1.59744 413.588
33 1 -39.0225 1.8446 400.209 -39.0225 1.8446 400.209
30 1 -40.6175 1.80513 402.131 -40.6175 1.80513 402.131
298 1 -42.2085 1.77089 404.097 -42.2085 1.77089 404.097
295 1 -43.8047 1.73521 406.067 -43.8047 1.73521 406.067
580 1 -45.4017 1.69808 408.036 -45.4017 1.69808 408.036
577 1 -46.9993 1.66016 410.005 -46.9993 1.66016 410.005
862 1 -48.5974 1.62172 411.975 -48.5974 1.62172 411.975
590 1 -39.3077 1.64338 410.365 -39.3077 1.64338 410.365
876 1 -40.9077 1.60609 412.333 -40.9077 1.60609 412.333
1163 1 -40.3175 0.750879 418.151 -40.3175 0.750879 418.151
1153 1 -46.51 3.68506 419.223 -46.51 3.68506 419.223
311 1 -35.3053 3.94652 405.449 -35.3053 3.94652 405.449
42 1 -33.6103 1.09911 400.134 -33.6103 1.09911 400.134
1135 1 -57.2895 0.736176 419.407 -57.2895 0.736176 419.407
1171 1 -35.7254 2.20523 419.05 -35.7254 2.20523 419.05
1139 1 -54.9952 1.46334 419.853 -54.9952 1.46334 419.853
601 1 -33.1102 3.13111 409.301 -33.1102 3.13111 409.301
313 1 -33.6999 3.98047 403.482 -33.6999 3.98047 403.482
858 1 -50.1961 1.58271 413.944 -50.1961 1.58271 413.944
868 1 -44.8044 0.84177 413.853 -44.8044 0.84177 413.853
1147 1 -50.3003 0.0369823 417.345 -50.3003 4.46444 417.345
843 1 101.421 3.79148 414.573 -58.6797 3.79148 414.573
593 1 -37.0101 2.36951 410.815 -37.0101 2.36951 410.815
308 1 -36.8069 1.02497 404.014 -36.8069 1.02497 404.014
861 1 -48.7003 0.0763892 415.375 -48.7003 4.50384 415.375
1158 1 -43.414 2.21809 418.686 -43.414 2.21809 418.686
884 1 -36.3137 3.0589 413.233 -36.3137 3.0589 413.233
881 1 -37.9151 3.02161 415.199 -37.9151 3.02161 415.199
885 1 -35.6184 3.74829 415.65 -35.6184 3.74829 415.65
859 1 -49.5003 2.27047 416.36 -49.5003 2.27047 416.36
596 1 -35.4092 2.4057 408.849 -35.4092 2.4057 408.849
879 1 -38.7158 0.789022 416.183 -38.7158 0.789022 416.183
1172 1 -34.9241 0.0102902 418.067 -34.9241 4.43774 418.067
1154 1 -45.7095 1.49099 418.239 -45.7095 1.49099 418.239
887 1 -34.8174 1.55309 414.667 -34.8174 1.55309 414.667
597 1 -34.7122 3.09546 411.267 -34.7122 3.09546 411.267
1161 1 -41.8127 2.25676 416.718 -41.8127 2.25676 416.718
1138 1 -55.6899 0.776634 417.436 -55.6899 0.776634 417.436
1149 1 -48.8053 2.95795 418.776 -48.8053 2.95795 418.776
41 1 -34.4021 3.29169 401.085 -34.4021 3.29169 401.085
888 1 -34.0163 3.78516 413.684 -34.0163 3.78516 413.684
1165 1 -39.5166 2.98374 417.167 -39.5166 2.98374 417.167
1141 1 -53.3953 1.50366 417.883 -53.3953 1.50366 417.883
1145 1 -51.1005 2.23083 418.33 -51.1005 2.23083 418.33
600 1 -33.8076 2.44084 406.885 -33.8076 2.44084 406.885
1148 1 -49.6057 0.724315 419.761 -49.6057 0.724315 419.761
882 1 -37.8105 0.137372 411.799 -37.8105 4.56483 411.799
1157 1 -44.2147 4.41228 419.671 -44.2147 4.41228 419.671
1144 1 -51.9006 4.42454 419.315 -51.9006 4.42454 419.315
602 1 -32.3088 0.934815 408.319 -32.3088 0.934815 408.319
1755 1 -32.1554 2.76928 427.735 -32.1554 2.76928 427.735
1460 1 -36.6355 2.85647 423.434 -36.6355 2.85647 423.434
2308 1 -45.5533 3.30198 437.663 -45.5533 3.30198 437.663
2316 1 -40.8607 1.88077 435.155 -40.8607 1.88077 435.155
2312 1 -43.2608 4.03195 438.11 -43.2608 4.03195 438.11
1464 1 -34.34 3.58428 423.884 -34.34 3.58428 423.884
1461 1 -35.8339 0.661929 422.451 -35.8339 0.661929 422.451
2039 1 -34.6726 3.38088 434.084 -34.6726 3.38088 434.084
2613 1 -36.3843 1.79506 439.454 -36.3843 1.79506 439.454
1467 1 -32.0444 4.31197 424.336 -32.0444 4.31197 424.336
2603 1 -41.7681 2.52737 439.543 -41.7681 2.52737 439.543
1443 1 -45.8161 4.37281 421.64 -45.8161 4.37281 421.64
1748 1 -35.9436 3.54585 425.851 -35.9436 3.54585 425.851
2023 1 -43.1536 1.15102 434.708 -43.1536 1.15102 434.708
2310 1 -44.0603 1.7972 439.095 -44.0603 1.7972 439.095
1151 1 -47.3106 1.45155 420.208 -47.3106 1.45155 420.208
2303 1 -48.6456 0.337449 438.201 -48.6456 0.337449 438.201
2299 1 -50.9387 4.03548 437.755 -50.9387 4.03548 437.755
2033 1 -37.767 0.417353 434.619 -37.767 0.417353 434.619
1433 1 -51.2064 0.684076 421.731 -51.2064 0.684076 421.731
1430 1 -52.807 0.643272 423.701 -52.807 0.643272 423.701
1426 1 -54.4076 0.601964 425.671 -54.4076 0.601964 425.671
1713 1 -56.0081 0.560279 427.642 -56.0081 0.560279 427.642
1710 1 -57.6085 0.518376 429.613 -57.6085 0.518376 429.613
2330 1 -32.4906 2.56618 437.934 -32.4906 2.56618 437.934
1160 1 -41.9192 0.712198 420.119 -41.9192 0.712198 420.119
1447 1 -43.5211 0.672971 422.087 -43.5211 0.672971 422.087
1444 1 -45.1228 0.633182 424.056 -45.1228 0.633182 424.056
1730 1 -46.7244 0.59282 426.025 -46.7244 0.59282 426.025
1727 1 -48.3256 0.551912 427.995 -48.3256 0.551912 427.995
1724 1 -49.9265 0.510532 429.965 -49.9265 0.510532 429.965
2008 1 -51.5269 0.468801 431.936 -51.5269 0.468801 431.936
2006 1 -53.1269 0.426873 433.906 -53.1269 0.426873 433.906
1458 1 -37.4371 0.623398 424.417 -37.4371 0.623398 424.417
1743 1 -39.04 0.584234 426.385 -39.04 0.584234 426.385
1740 1 -40.6425 0.544425 428.353 -40.6425 0.544425 428.353
2026 1 -42.2446 0.503981 430.321 -42.2446 0.503981 430.321
2022 1 -43.846 0.46295 432.29 -43.846 0.46295 432.29
2019 1 -45.4466 0.421424 434.26 -45.4466 0.421424 434.26
2309 1 -44.7536 1.10925 436.678 -44.7536 1.10925 436.678
1137 1 -55.7952 3.65667 420.838 -55.7952 3.65667 420.838
1421 1 -57.3953 3.61543 422.809 -57.3953 3.61543 422.809
1439 1 -48.1111 3.64535 421.193 -48.1111 3.64535 421.193
1435 1 -49.7122 3.60507 423.162 -49.7122 3.60507 423.162
1432 1 -51.3131 3.56424 425.132 -51.3131 3.56424 425.132
1719 1 -52.9138 3.52292 427.103 -52.9138 3.52292 427.103
1716 1 -54.5143 3.48123 429.073 -54.5143 3.48123 429.073
2001 1 -56.1147 3.43934 431.044 -56.1147 3.43934 431.044
1998 1 -57.7149 3.39742 433.015 -57.7149 3.39742 433.015
2323 1 -36.275 3.34046 436.052 -36.275 3.34046 436.052
1453 1 -40.4249 3.63401 421.551 -40.4249 3.63401 421.551
1450 1 -42.0271 3.59478 423.519 -42.0271 3.59478 423.519
1446 1 -43.6291 3.55496 425.488 -43.6291 3.55496 425.488
1732 1 -45.2308 3.51456 427.457 -45.2308 3.51456 427.457
1729 1 -46.8322 3.4736 429.427 -46.8322 3.4736 429.427
2014 1 -48.433 3.43218 431.397 -48.433 3.43218 431.397
2011 1 -50.0333 3.3904 433.367 -50.0333 3.3904 433.367
1745 1 -37.5468 3.50675 427.818 -37.5468 3.50675 427.818
1742 1 -39.1496 3.46698 429.785 -39.1496 3.46698 429.785
2028 1 -40.7518 3.42653 431.754 -40.7518 3.42653 431.754
2025 1 -42.3532 3.38548 433.723 -42.3532 3.38548 433.723
1427 1 -54.3011 2.1499 422.27 -54.3011 2.1499 422.27
1424 1 -55.9015 2.10862 424.24 -55.9015 2.10862 424.24
1711 1 -57.5019 2.06693 426.211 -57.5019 2.06693 426.211
2322 1 -37.0758 1.10625 437.036 -37.0758 1.10625 437.036
1750 1 -34.4504 2.04103 427.284 -34.4504 2.04103 427.284
1155 1 -45.0154 2.17889 420.655 -45.0154 2.17889 420.655
1441 1 -46.6168 2.13914 422.624 -46.6168 2.13914 422.624
1438 1 -48.2181 2.09882 424.594 -48.2181 2.09882 424.594
1725 1 -49.8192 2.05795 426.564 -49.8192 2.05795 426.564
1722 1 -51.4201 2.01661 428.534 -51.4201 2.01661 428.534
1718 1 -53.0206 1.97491 430.504 -53.0206 1.97491 430.504
2003 1 -54.6208 1.93301 432.475 -54.6208 1.93301 432.475
2000 1 -56.2208 1.89108 434.446 -56.2208 1.89108 434.446
1459 1 -37.3281 2.16721 421.017 -37.3281 2.16721 421.017
1455 1 -38.9308 2.1286 422.984 -38.9308 2.1286 422.984
1452 1 -40.5334 2.08938 424.952 -40.5334 2.08938 424.952
1737 1 -42.1357 2.04956 426.92 -42.1357 2.04956 426.92
1735 1 -43.7376 2.00913 428.889 -43.7376 2.00913 428.889
2020 1 -45.339 1.96814 430.858 -45.339 1.96814 430.858
2017 1 -46.9397 1.92666 432.828 -46.9397 1.92666 432.828
2034 1 -37.657 1.96229 431.218 -37.657 1.96229 431.218
2031 1 -39.2593 1.92185 433.186 -39.2593 1.92185 433.186
2029 1 -40.0601 4.11511 434.171 -40.0601 4.11511 434.171
1146 1 -50.406 2.91799 420.746 -50.406 2.91799 420.746
1431 1 -52.0067 2.87747 422.716 -52.0067 2.87747 422.716
1428 1 -53.6073 2.8364 424.686 -53.6073 2.8364 424.686
1715 1 -55.2078 2.79489 426.657 -55.2078 2.79489 426.657
1712 1 -56.8083 2.75307 428.627 -56.8083 2.75307 428.627
1708 1 -58.4088 2.71112 430.598 -58.4088 2.71112 430.598
1747 1 -36.054 2.00202 429.251 -36.054 2.00202 429.251
1449 1 -42.7202 2.90638 421.103 -42.7202 2.90638 421.103
1445 1 -44.322 2.86687 423.071 -44.322 2.86687 423.071
1442 1 -45.9236 2.8268 425.041 -45.9236 2.8268 425.041
1728 1 -47.525 2.78616 427.01 -47.525 2.78616 427.01
1726 1 -49.1261 2.745 428.98 -49.1261 2.745 428.98
2010 1 -50.7267 2.70343 430.95 -50.7267 2.70343 430.95
2007 1 -52.327 2.66158 432.921 -52.327 2.66158 432.921
1456 1 -38.2385 2.81762 425.401 -38.2385 2.81762 425.401
1741 1 -39.8413 2.77814 427.369 -39.8413 2.77814 427.369
1738 1 -41.4436 2.73801 429.337 -41.4436 2.73801 429.337
2024 1 -43.0453 2.69726 431.306 -43.0453 2.69726 431.306
2021 1 -44.6464 2.65597 433.275 -44.6464 2.65597 433.275
2035 1 -36.966 2.65138 433.635 -36.966 2.65138 433.635
1754 1 -32.8464 2.07934 425.318 -32.8464 2.07934 425.318
1423 1 -56.5953 1.42239 421.824 -56.5953 1.42239 421.824
1420 1 -58.1954 1.3809 423.794 -58.1954 1.3809 423.794
2044 1 -31.5771 1.91625 433.551 -31.5771 1.91625 433.551
1437 1 -48.9116 1.41156 422.177 -48.9116 1.41156 422.177
1434 1 -50.5126 1.371 424.147 -50.5126 1.371 424.147
1721 1 -52.1134 1.32991 426.117 -52.1134 1.32991 426.117
1717 1 -53.7141 1.28838 428.088 -53.7141 1.28838 428.088
1714 1 -55.3145 1.24658 430.059 -55.3145 1.24658 430.059
1999 1 -56.9148 1.20465 432.029 -56.9148 1.20465 432.029
1997 1 101.586 1.16277 434 -58.515 1.16277 434
1164 1 -39.6237 1.43968 420.567 -39.6237 1.43968 420.567
1451 1 -41.226 1.40074 422.535 -41.226 1.40074 422.535
1448 1 -42.8281 1.36121 424.504 -42.8281 1.36121 424.504
1734 1 -44.43 1.3211 426.472 -44.43 1.3211 426.472
1731 1 -46.0316 1.28042 428.442 -46.0316 1.28042 428.442
2016 1 -47.6326 1.23922 430.412 -47.6326 1.23922 430.412
2012 1 -49.2332 1.1976 432.382 -49.2332 1.1976 432.382
2009 1 -50.8333 1.1557 434.352 -50.8333 1.1557 434.352
1746 1 -36.7453 1.31266 426.834 -36.7453 1.31266 426.834
1744 1 -38.3483 1.27323 428.801 -38.3483 1.27323 428.801
2030 1 -39.9508 1.23311 430.769 -39.9508 1.23311 430.769
2027 1 -41.5526 1.19235 432.738 -41.5526 1.19235 432.738
2325 1 -35.4739 1.14704 435.068 -35.4739 1.14704 435.068
1749 1 -35.2523 4.23534 428.267 -35.2523 4.23534 428.267
1425 1 -55.1013 4.34305 423.255 -55.1013 4.34305 423.255
1736 1 -42.9367 4.24315 427.904 -42.9367 4.24315 427.904
1142 1 -52.7008 2.19066 420.3 -52.7008 2.19066 420.3
1720 1 -52.2204 4.20952 429.519 -52.2204 4.20952 429.519
2005 1 -53.8207 4.1677 431.49 -53.8207 4.1677 431.49
2002 1 -55.4208 4.12577 433.46 -55.4208 4.12577 433.46
1169 1 -36.5268 4.40002 420.034 -36.5268 4.40002 420.034
1723 1 -50.6197 4.25106 427.549 -50.6197 4.25106 427.549
1440 1 -47.4175 4.33278 423.609 -47.4175 4.33278 423.609
1733 1 -44.5383 4.20243 429.874 -44.5383 4.20243 429.874
2018 1 -46.1394 4.16118 431.843 -46.1394 4.16118 431.843
2015 1 -47.7399 4.1195 433.814 -47.7399 4.1195 433.814
2036 1 -36.8556 4.19597 430.234 -36.8556 4.19597 430.234
2032 1 -38.4583 4.15588 432.202 -38.4583 4.15588 432.202
2326 1 -34.7832 1.83624 437.485 -34.7832 1.83624 437.485
1752 1 -33.6485 4.274 426.301 -33.6485 4.274 426.301
1457 1 -38.1295 4.3617 422.001 -38.1295 4.3617 422.001
2043 1 -32.2671 1.22629 431.134 -32.2671 1.22629 431.134
2286 1 -57.8204 1.84929 436.417 -57.8204 1.84929 436.417
2319 1 -38.6763 1.06481 439.006 -38.6763 1.06481 439.006
1436 1 -49.0187 4.29218 425.579 -49.0187 4.29218 425.579
1422 1 -56.7016 4.30154 425.226 -56.7016 4.30154 425.226
1173 1 -34.2307 0.699846 420.485 -34.2307 0.699846 420.485
2293 1 -54.0317 1.07174 438.294 -54.0317 1.07174 438.294
2289 1 -56.3258 0.343102 437.848 -56.3258 0.343102 437.848
2295 1 -52.5372 3.99347 439.726 -52.5372 3.99347 439.726
1465 1 -33.5382 1.38953 422.901 -33.5382 1.38953 422.901
2315 1 -40.9685 0.334611 438.558 -40.9685 0.334611 438.558
2331 1 -32.3791 4.1103 434.534 -32.3791 4.1103 434.534
2297 1 -51.7381 1.80073 438.74 -51.7381 1.80073 438.74
2324 1 -35.5839 4.02946 438.469 -35.5839 4.02946 438.469
2306 1 -46.3528 1.0672 438.648 -46.3528 1.0672 438.648
2285 1 -57.9246 0.301581 439.819 -57.9246 0.301581 439.819
1462 1 -35.1418 1.35142 424.867 -35.1418 1.35142 424.867
1751 1 -33.7595 2.73074 429.701 -33.7595 2.73074 429.701
2329 1 -33.1808 1.87667 435.517 -33.1808 1.87667 435.517
2042 1 -33.0691 3.42051 432.117 -33.0691 3.42051 432.117
2041 1 -33.871 1.18707 433.1 -33.871 1.18707 433.1
2593 1 -47.152 3.25985 439.634 -47.152 3.25985 439.634
2328 1 -33.2917 0.332121 438.918 -33.2917 0.332121 438.918
2301 1 -49.4448 2.53011 439.187 -49.4448 2.53011 439.187
1466 1 -32.7364 3.62207 421.919 -32.7364 3.62207 421.919
2298 1 -51.6331 3.34842 435.338 -51.6331 3.34842 435.338
2321 1 -37.8762 3.29933 438.021 -37.8762 3.29933 438.021
2313 1 -42.461 1.83917 437.125 -42.461 1.83917 437.125
2294 1 -53.2323 3.30642 437.309 -53.2323 3.30642 437.309
2304 1 -47.8461 2.57223 437.216 -47.8461 2.57223 437.216
2300 1 -50.1393 1.84279 436.769 -50.1393 1.84279 436.769
2290 1 -55.5262 2.57771 436.863 -55.5262 2.57771 436.863
2318 1 -39.3683 0.376253 436.588 -39.3683 0.376253 436.588
2327 1 -33.9821 4.07028 436.501 -33.9821 4.07028 436.501
2004 1 -53.9268 2.61961 434.892 -53.9268 2.61961 434.892
2013 1 -48.5398 1.88482 434.799 -48.5398 1.88482 434.799
2288 1 -57.0206 4.08388 435.431 -57.0206 4.08388 435.431
2037 1 -36.1647 0.45778 432.651 -36.1647 0.45778 432.651
1739 1 -41.3346 4.28328 425.936 -41.3346 4.28328 425.936
1753 1 -32.9575 0.536374 428.718 -32.9575 0.536374 428.718
2307 1 -46.2467 2.61424 435.245 -46.2467 2.61424 435.245
2314 1 -41.661 4.07376 436.14 -41.661 4.07376 436.14
2040 1 -34.5614 0.49746 430.684 -34.5614 0.49746 430.684
2320 1 -38.5678 2.61061 435.603 -38.5678 2.61061 435.603
2292 1 -54.7265 0.384918 435.877 -54.7265 0.384918 435.877
2311 1 -43.9537 3.34391 435.693 -43.9537 3.34391 435.693
2302 1 -49.3396 4.07755 435.784 -49.3396 4.07755 435.784
2296 1 -52.4328 1.11369 436.323 -52.4328 1.11369 436.323
1463 1 -35.0323 2.89469 421.468 -35.0323 2.89469 421.468
2287 1 -57.1253 2.53602 438.833 -57.1253 2.53602 438.833
2291 1 -54.831 3.26456 439.28 -54.831 3.26456 439.28
2317 1 -40.1686 2.56922 437.573 -40.1686 2.56922 437.573
2038 1 -35.3631 2.69144 431.667 -35.3631 2.69144 431.667
2305 1 -47.0465 0.379537 436.231 -47.0465 0.379537 436.231
2332 1 -31.6892 0.372579 436.95 -31.6892 0.372579 436.95
1709 1 -58.3021 4.25971 427.196 -58.3021 4.25971 427.196
1468 1 -31.9345 1.427 420.936 -31.9345 1.427 420.936
1454 1 -39.7321 4.32279 423.968 -39.7321 4.32279 423.968
1429 1 -53.5009 4.38408 421.285 -53.5009 4.38408 421.285
1133 1 -58.0893 2.92939 420.392 -58.0893 2.92939 420.392
1175 1 -33.4291 2.9323 419.502 -33.4291 2.9323 419.502
2616 1 -34.2008 0.979529 443.305 -34.2008 0.979529 443.305
2901 1 -35.7987 0.937357 445.276 -35.7987 0.937357 445.276
2907 1 -32.7093 3.90279 444.738 -32.7093 3.90279 444.738
3194 1 -33.612 0.121066 449.129 -33.612 0.121066 449.129
2587 1 -50.2439 0.295337 440.172 -50.2439 0.295337 440.172
2597 1 -44.8595 3.98986 440.081 -44.8595 3.98986 440.081
2584 1 -51.8414 0.253379 442.143 -51.8414 0.253379 442.143
2581 1 -53.4383 0.211746 444.114 -53.4383 0.211746 444.114
2868 1 -55.0345 0.170604 446.085 -55.0345 0.170604 446.085
2865 1 -56.6304 0.130103 448.056 -56.6304 0.130103 448.056
2601 1 -42.5674 0.292603 440.528 -42.5674 0.292603 440.528
2598 1 -44.1651 0.250429 442.499 -44.1651 0.250429 442.499
2885 1 -45.7617 0.208298 444.471 -45.7617 0.208298 444.471
2882 1 -47.3571 0.166408 446.442 -47.3571 0.166408 446.442
2879 1 -48.9516 0.124946 448.414 -48.9516 0.124946 448.414
2612 1 -36.4919 0.249011 442.857 -36.4919 0.249011 442.857
2898 1 -38.0894 0.206805 444.828 -38.0894 0.206805 444.828
2895 1 -39.6853 0.164516 446.799 -39.6853 0.164516 446.799
3180 1 -41.2796 0.122393 448.772 -41.2796 0.122393 448.772
2576 1 -56.4293 3.22301 441.25 -56.4293 3.22301 441.25
2574 1 -58.0271 3.18192 443.221 -58.0271 3.18192 443.221
2589 1 -48.7497 3.21771 441.605 -48.7497 3.21771 441.605
2586 1 -50.3466 3.17573 443.576 -50.3466 3.17573 443.576
2874 1 -51.9427 3.13409 445.547 -51.9427 3.13409 445.547
2871 1 -53.5381 3.09295 447.518 -53.5381 3.09295 447.518
3155 1 -55.133 3.05248 449.488 -55.133 3.05248 449.488
2607 1 -39.4761 3.25763 439.991 -39.4761 3.25763 439.991
2604 1 -41.0746 3.21557 441.961 -41.0746 3.21557 441.961
2600 1 -42.6718 3.17337 443.932 -42.6718 3.17337 443.932
2887 1 -44.2677 3.13126 445.904 -44.2677 3.13126 445.904
2884 1 -45.8624 3.08944 447.876 -45.8624 3.08944 447.876
3168 1 -47.456 3.04813 449.848 -47.456 3.04813 449.848
2900 1 -36.5969 3.12991 446.261 -36.5969 3.12991 446.261
2897 1 -38.192 3.08758 448.233 -38.192 3.08758 448.233
2582 1 -53.3362 1.75882 440.711 -53.3362 1.75882 440.711
2579 1 -54.9338 1.71723 442.682 -54.9338 1.71723 442.682
2866 1 -56.5309 1.67611 444.653 -56.5309 1.67611 444.653
2578 1 -55.6302 1.03001 440.265 -55.6302 1.03001 440.265
2595 1 -45.6585 1.75505 441.066 -45.6585 1.75505 441.066
2592 1 -47.2557 1.7129 443.038 -47.2557 1.7129 443.038
2880 1 -48.8519 1.67095 445.009 -48.8519 1.67095 445.009
2877 1 -50.4471 1.62936 446.98 -50.4471 1.62936 446.98
2873 1 -52.0417 1.58832 448.951 -52.0417 1.58832 448.951
2609 1 -37.9839 1.75329 441.424 -37.9839 1.75329 441.424
2606 1 -39.582 1.71117 443.394 -39.582 1.71117 443.394
2892 1 -41.1785 1.66893 445.366 -41.1785 1.66893 445.366
2890 1 -42.7737 1.62681 447.338 -42.7737 1.62681 447.338
3174 1 -44.3675 1.58504 449.31 -44.3675 1.58504 449.31
2618 1 -33.4011 3.21418 442.32 -33.4011 3.21418 442.32
2585 1 -51.0427 2.48805 441.158 -51.0427 2.48805 441.158
2583 1 -52.6399 2.44624 443.129 -52.6399 2.44624 443.129
2870 1 -54.2365 2.40483 445.1 -54.2365 2.40483 445.1
2867 1 -55.8325 2.36399 447.07 -55.8325 2.36399 447.07
2863 1 -57.4281 2.32386 449.041 -57.4281 2.32386 449.041
2599 1 -43.3664 2.48525 441.514 -43.3664 2.48525 441.514
2596 1 -44.9636 2.44307 443.485 -44.9636 2.44307 443.485
2883 1 -46.5595 2.40104 445.457 -46.5595 2.40104 445.457
2881 1 -48.1545 2.35934 447.428 -48.1545 2.35934 447.428
3164 1 -49.7485 2.31816 449.4 -49.7485 2.31816 449.4
2610 1 -37.2908 2.44166 443.842 -37.2908 2.44166 443.842
2896 1 -38.8875 2.39938 445.814 -38.8875 2.39938 445.814
2893 1 -40.4826 2.35715 447.785 -40.4826 2.35715 447.785
3178 1 -42.0762 2.31519 449.758 -42.0762 2.31519 449.758
2575 1 -57.2283 0.988674 442.236 -57.2283 0.988674 442.236
2591 1 -47.951 1.02504 440.619 -47.951 1.02504 440.619
2588 1 -49.5483 0.982959 442.59 -49.5483 0.982959 442.59
2876 1 -51.1447 0.941129 444.562 -51.1447 0.941129 444.562
2872 1 -52.7405 0.899723 446.533 -52.7405 0.899723 446.533
2869 1 -54.3356 0.858898 448.503 -54.3356 0.858898 448.503
2605 1 -40.2756 1.02291 440.976 -40.2756 1.02291 440.976
2602 1 -41.8734 0.980751 442.947 -41.8734 0.980751 442.947
2889 1 -43.4699 0.938566 444.918 -43.4699 0.938566 444.918
2886 1 -45.0652 0.896573 446.89 -45.0652 0.896573 446.89
3170 1 -46.6593 0.854981 448.862 -46.6593 0.854981 448.862
2899 1 -37.3947 0.895005 447.247 -37.3947 0.895005 447.247
3184 1 -38.9889 0.85276 449.219 -38.9889 0.85276 449.219
2580 1 -54.1351 3.9517 441.697 -54.1351 3.9517 441.697
2577 1 -55.7324 3.91032 443.668 -55.7324 3.91032 443.668
2864 1 -57.3293 3.8695 445.638 -57.3293 3.8695 445.638
2862 1 -58.1276 1.63561 446.623 -58.1276 1.63561 446.623
2594 1 -46.4572 3.94769 442.052 -46.4572 3.94769 442.052
2590 1 -48.0539 3.90561 444.023 -48.0539 3.90561 444.023
2878 1 -49.6496 3.86382 445.995 -49.6496 3.86382 445.995
2875 1 -51.2445 3.82249 447.966 -51.2445 3.82249 447.966
3159 1 -52.8387 3.78177 449.937 -52.8387 3.78177 449.937
2611 1 -37.1843 3.98796 440.439 -37.1843 3.98796 440.439
2608 1 -38.7831 3.94599 442.409 -38.7831 3.94599 442.409
2894 1 -40.3804 3.90377 444.38 -40.3804 3.90377 444.38
2891 1 -41.9763 3.86156 446.352 -41.9763 3.86156 446.352
2888 1 -43.5707 3.81959 448.324 -43.5707 3.81959 448.324
2904 1 -34.3066 3.86048 446.709 -34.3066 3.86048 446.709
2621 1 -31.8004 3.25553 440.351 -31.8004 3.25553 440.351
2617 1 -34.0924 2.52531 439.902 -34.0924 2.52531 439.902
2614 1 -35.6925 2.48373 441.872 -35.6925 2.48373 441.872
2908 1 -32.0166 0.163632 447.157 -32.0166 0.163632 447.157
2619 1 -32.601 1.02122 441.335 -32.601 1.02122 441.335
2906 1 -32.8146 2.35608 448.143 -32.8146 2.35608 448.143
2905 1 -33.5082 1.66794 445.724 -33.5082 1.66794 445.724
2620 1 -31.9099 1.71006 443.753 -31.9099 1.71006 443.753
3190 1 -35.9018 3.81804 448.681 -35.9018 3.81804 448.681
2902 1 -35.1044 1.62553 447.695 -35.1044 1.62553 447.695
2903 1 -35 3.17221 444.29 -35 3.17221 444.29
2615 1 -34.8926 0.290866 440.887 -34.8926 0.290866 440.887
2909 1 -31.218 2.39857 446.172 -31.218 2.39857 446.172
14 1 -51.3726 0.41913 399.018 -51.3726 4.84658 399.018
7 1 -55.8269 3.37256 398.249 -55.8269 3.37256 398.249
25 1 -43.6311 0.417594 399.301 -43.6311 4.84505 399.301
38 1 -35.8781 0.341594 399.606 -35.8781 4.76905 399.606
23 1 -45.2203 0.362717 401.257 -45.2203 4.79017 401.257
287 1 -48.402 0.279855 405.173 -48.402 4.70731 405.173
878 1 -39.4112 0.10005 413.766 -39.4112 4.5275 413.766
579 1 -45.5015 0.153657 411.437 -45.5015 4.58111 411.437
585 1 -42.3042 0.228318 407.499 -42.3042 4.65577 407.499
290 1 -46.8123 0.320425 403.21 -46.8123 4.74788 403.21
11 1 -52.9082 0.356668 400.927 -52.9082 4.78412 400.927
595 1 -36.2097 0.174012 409.832 -36.2097 4.60147 409.832
1134 1 -57.9842 0.0500114 416.99 -57.9842 4.47746 416.99
283 1 -49.9955 0.241977 407.14 -49.9955 4.66943 407.14
582 1 -43.9027 0.191343 409.468 -43.9027 4.6188 409.468
276 1 -54.5059 0.336799 402.854 -54.5059 4.76425 402.854
569 1 -51.5909 0.204833 409.109 -51.5909 4.63229 409.109
847 1 -56.3851 0.0897936 415.02 -56.3851 4.51725 415.02
272 1 -56.0875 0.301759 404.817 -56.0875 4.72921 404.817
3 1 -57.5966 3.37508 400.004 -57.5966 3.37508 400.004
35 1 -37.496 0.327427 401.584 -37.496 4.75488 401.584
598 1 -34.6084 0.209718 407.866 -34.6084 4.63717 407.866
850 1 -54.786 0.128562 413.049 -54.786 4.55601 413.049
304 1 -39.1043 0.299986 403.559 -39.1043 4.72744 403.559
301 1 -40.7052 0.264625 405.53 -40.7052 4.69208 405.53
269 1 -57.6786 0.262953 406.789 -57.6786 4.69041 406.789