ITEM: TIMESTEP
0
ITEM: NUMBER OF ATOMS
4630
ITEM: BOX BOUNDS xy xz yz pp pp pp
-5.4640988501799995e+01 9.7660020349999996e+01 0.0000000000000000e+00
0.0000000000000000e+00 4.4274527100805940e+00 0.0000000000000000e+00
3.8000000000000000e+02 5.0000000000000000e+02 0.0000000000000000e+00
ITEM: ATOMS id type x y z xu yu zu
27 1 -41.3858 2.62407 397.462 -41.3858 2.62407 397.462
36 1 -35.9333 1.87873 396.952 -35.9333 1.87873 396.952
31 1 -38.9833 3.30297 397.654 -38.9833 3.30297 397.654
22 1 -44.442 4.05501 398.198 -44.442 4.05501 398.198
20 1 -45.168 1.83797 399.149 -45.168 1.83797 399.149
40 1 -33.533 2.56087 397.15 -33.533 2.56087 397.15
34 1 -36.6434 4.07884 397.889 -36.6434 4.07884 397.889
17 1 -47.5104 1.07841 398.923 -47.5104 1.07841 398.923
9 1 -52.9075 1.7573 399.405 -52.9075 1.7573 399.405
43 1 -31.1942 3.33818 397.389 -31.1942 3.33818 397.389
12 1 -50.6033 2.59697 399.673 -50.6033 2.59697 399.673
29 1 -39.7271 1.07637 398.606 -39.7271 1.07637 398.606
853 1 -50.7467 3.04972 414.21 -50.7467 3.04972 414.21
873 1 -39.9015 1.58187 413.175 -39.9015 1.58187 413.175
865 1 -43.7193 0.814347 414.991 -43.7193 0.814347 414.991
1174 1 -31.254 2.26848 415.27 -31.254 2.26848 415.27
883 1 -34.4717 0.845551 412.664 -34.4717 0.845551 412.664
863 1 -45.327 2.31722 413.691 -45.327 2.31722 413.691
315 1 -31.0584 1.78348 400.734 -31.0584 1.78348 400.734
307 1 -35.6242 3.22346 403.573 -35.6242 3.22346 403.573
1150 1 -45.1924 0.775228 417.07 -45.1924 0.775228 417.07
855 1 -49.1406 1.54702 415.51 -49.1406 1.54702 415.51
310 1 -34.1503 3.25514 401.504 -34.1503 3.25514 401.504
871 1 -40.6382 3.77696 414.213 -40.6382 3.77696 414.213
16 1 -48.2417 3.28014 399.881 -48.2417 3.28014 399.881
309 1 -34.0092 1.72209 404.873 -34.0092 1.72209 404.873
1156 1 -42.1121 3.73892 416.291 -42.1121 3.73892 416.291
867 1 -42.983 3.04722 413.952 -42.983 3.04722 413.952
1159 1 -39.7677 0.0415648 416.553 -39.7677 4.46902 416.553
1168 1 -34.339 3.73395 416.042 -34.339 3.73395 416.042
1170 1 -33.6008 1.5387 415.004 -33.6008 1.5387 415.004
594 1 -34.746 3.91942 405.91 -34.746 3.91942 405.91
37 1 -35.0241 2.55085 399.18 -35.0241 2.55085 399.18
851 1 -51.4816 0.815859 415.251 -51.4816 0.815859 415.251
857 1 -48.4052 3.78073 414.47 -48.4052 3.78073 414.47
592 1 -35.4826 1.6888 406.947 -35.4826 1.6888 406.947
849 1 -52.2168 3.00916 416.292 -52.2168 3.00916 416.292
877 1 -37.5557 2.31144 413.438 -37.5557 2.31144 413.438
1143 1 -49.8763 3.74053 416.551 -49.8763 3.74053 416.551
1140 1 -51.3483 3.69929 418.632 -51.3483 3.69929 418.632
845 1 97.7444 2.2779 416.033 -54.5566 2.2779 416.033
875 1 -38.2929 0.0792065 414.476 -38.2929 4.50666 414.476
886 1 -32.9966 0.881378 410.59 -32.9966 0.881378 410.59
891 1 -29.91 3.84209 409.82 -29.91 3.84209 409.82
39 1 -33.4184 1.05342 400.462 -33.4184 1.05342 400.462
1177 1 -29.646 0.766213 416.574 -29.646 0.766213 416.574
1167 1 -35.0774 1.50158 417.079 -35.0774 1.50158 417.079
8 1 -53.6625 4.02209 400.471 -53.6625 4.02209 400.471
869 1 -41.3751 1.54434 415.252 -41.3751 1.54434 415.252
1136 1 -53.6881 2.96738 418.374 -53.6881 2.96738 418.374
1162 1 -38.1609 2.96636 417.854 -38.1609 2.96636 417.854
15 1 -48.9797 1.06551 400.963 -48.9797 1.06551 400.963
280 1 -50.4438 1.03637 403.032 -50.4438 1.03637 403.032
277 1 -51.912 1.01316 405.105 -51.912 1.01316 405.105
273 1 -53.3719 0.976509 407.187 -53.3719 0.976509 407.187
560 1 97.466 0.938726 409.269 -54.835 0.938726 409.269
26 1 -41.2034 1.06699 400.692 -41.2034 1.06699 400.692
294 1 -42.6742 1.03944 402.779 -42.6742 1.03944 402.779
291 1 -44.142 1.00434 404.857 -44.142 1.00434 404.857
576 1 -45.6088 0.968155 406.933 -45.6088 0.968155 406.933
573 1 -47.0762 0.932238 409.01 -47.0762 0.932238 409.01
570 1 -48.5437 0.894734 411.089 -48.5437 0.894734 411.089
854 1 -50.012 0.855827 413.17 -50.012 0.855827 413.17
305 1 -36.3598 0.99363 404.608 -36.3598 0.99363 404.608
589 1 -37.8315 0.959868 406.683 -37.8315 0.959868 406.683
586 1 -39.303 0.925012 408.758 -39.303 0.925012 408.758
872 1 -40.7747 0.889181 410.835 -40.7747 0.889181 410.835
599 1 -31.5213 0.916279 408.517 -31.5213 0.916279 408.517
1152 1 -44.4558 3.00864 416.03 -44.4558 3.00864 416.03
19 1 -45.9118 4.02385 400.192 -45.9118 4.02385 400.192
286 1 -47.3719 3.99224 402.241 -47.3719 3.99224 402.241
282 1 -48.8315 3.96311 404.325 -48.8315 3.96311 404.325
279 1 -50.2979 3.93461 406.404 -50.2979 3.93461 406.404
565 1 -51.7614 3.89948 408.486 -51.7614 3.89948 408.486
563 1 -53.2265 3.8618 410.569 -53.2265 3.8618 410.569
846 1 -54.6933 3.82263 412.651 -54.6933 3.82263 412.651
32 1 -38.1187 4.02652 399.946 -38.1187 4.02652 399.946
300 1 -39.5911 3.99686 402.01 -39.5911 3.99686 402.01
297 1 -41.0599 3.96404 404.082 -41.0599 3.96404 404.082
293 1 -42.5282 3.92997 406.158 -42.5282 3.92997 406.158
578 1 -43.9967 3.89434 408.234 -43.9967 3.89434 408.234
575 1 -45.4659 3.85783 410.312 -45.4659 3.85783 410.312
860 1 -46.9352 3.81991 412.39 -46.9352 3.81991 412.39
591 1 -36.2191 3.8853 407.984 -36.2191 3.8853 407.984
588 1 -37.6919 3.85011 410.06 -37.6919 3.85011 410.06
874 1 -39.1649 3.81399 412.136 -39.1649 3.81399 412.136
10 1 -52.0603 2.52954 401.737 -52.0603 2.52954 401.737
274 1 -53.5308 2.52153 403.8 -53.5308 2.52153 403.8
271 1 97.3184 2.48124 405.887 -54.9826 2.48124 405.887
24 1 -42.838 2.57545 399.446 -42.838 2.57545 399.446
21 1 -44.2994 2.54001 401.486 -44.2994 2.54001 401.486
288 1 -45.7575 2.50427 403.557 -45.7575 2.50427 403.557
285 1 -47.2208 2.46754 405.632 -47.2208 2.46754 405.632
571 1 -48.6869 2.43343 407.709 -48.6869 2.43343 407.709
568 1 -50.1524 2.39685 409.788 -50.1524 2.39685 409.788
852 1 -51.6191 2.35851 411.869 -51.6191 2.35851 411.869
848 1 -53.0873 2.31895 413.951 -53.0873 2.31895 413.951
306 1 -36.5033 2.5245 401.235 -36.5033 2.5245 401.235
302 1 -37.9752 2.49439 403.305 -37.9752 2.49439 403.305
299 1 -39.4449 2.46158 405.38 -39.4449 2.46158 405.38
583 1 -40.915 2.42737 407.457 -40.915 2.42737 407.457
581 1 -42.3853 2.39183 409.534 -42.3853 2.39183 409.534
866 1 -43.856 2.35519 411.612 -43.856 2.35519 411.612
880 1 -36.0815 2.34783 411.362 -36.0815 2.34783 411.362
312 1 -32.535 1.75386 402.801 -32.535 1.75386 402.801
13 1 -49.706 3.26085 401.976 -49.706 3.26085 401.976
278 1 -51.1782 3.23929 404.061 -51.1782 3.23929 404.061
275 1 -52.6414 3.20905 406.143 -52.6414 3.20905 406.143
562 1 -54.1027 3.17134 408.228 -54.1027 3.17134 408.228
1166 1 -35.8159 3.69651 418.117 -35.8159 3.69651 418.117
889 1 -30.6482 1.61085 410.857 -30.6482 1.61085 410.857
28 1 -40.4696 3.2948 399.686 -40.4696 3.2948 399.686
296 1 -41.9425 3.26763 401.745 -41.9425 3.26763 401.745
292 1 -43.4091 3.23593 403.819 -43.4091 3.23593 403.819
289 1 -44.8752 3.20016 405.895 -44.8752 3.20016 405.895
574 1 -46.3424 3.16415 407.972 -46.3424 3.16415 407.972
572 1 -47.8099 3.12749 410.05 -47.8099 3.12749 410.05
856 1 -49.2777 3.08916 412.129 -49.2777 3.08916 412.129
303 1 -37.0961 3.19047 405.645 -37.0961 3.19047 405.645
587 1 -38.5673 3.15623 407.72 -38.5673 3.15623 407.72
584 1 -40.0388 3.12093 409.797 -40.0388 3.12093 409.797
870 1 -41.5107 3.08462 411.874 -41.5107 3.08462 411.874
6 1 -54.4179 1.82811 401.448 -54.4179 1.82811 401.448
890 1 -29.7767 2.30481 413.197 -29.7767 2.30481 413.197
18 1 -46.6361 1.79535 401.216 -46.6361 1.79535 401.216
284 1 -48.0982 1.76538 403.29 -48.0982 1.76538 403.29
281 1 -49.565 1.73631 405.367 -49.565 1.73631 405.367
567 1 -51.0298 1.70414 407.446 -51.0298 1.70414 407.446
564 1 -52.4938 1.66709 409.528 -52.4938 1.66709 409.528
561 1 -53.9598 1.62873 411.61 -53.9598 1.62873 411.61
33 1 -37.3952 1.82891 398.931 -37.3952 1.82891 398.931
30 1 -38.8628 1.79521 400.966 -38.8628 1.79521 400.966
298 1 -40.3262 1.7662 403.041 -40.3262 1.7662 403.041
295 1 -41.794 1.7335 405.119 -41.794 1.7335 405.119
580 1 -43.2624 1.69848 407.196 -43.2624 1.69848 407.196
577 1 -44.7313 1.66245 409.273 -44.7313 1.66245 409.273
862 1 -46.2005 1.62531 411.351 -46.2005 1.62531 411.351
590 1 -36.9554 1.65412 409.022 -36.9554 1.65412 409.022
876 1 -38.4283 1.61844 411.098 -38.4283 1.61844 411.098
1163 1 -37.4228 0.771591 416.816 -37.4228 0.771591 416.816
1153 1 -43.5865 3.69989 418.37 -43.5865 3.69989 418.37
311 1 -33.2715 3.95224 403.838 -33.2715 3.95224 403.838
42 1 -31.9459 1.08794 398.43 -31.9459 1.08794 398.43
1135 1 -54.4242 0.732331 419.415 -54.4242 0.732331 419.415
1171 1 -32.7315 2.23153 417.344 -32.7315 2.23153 417.344
1139 1 -52.0848 1.46455 419.673 -52.0848 1.46455 419.673
601 1 -30.7834 3.14704 407.48 -30.7834 3.14704 407.48
313 1 -31.7943 3.98415 401.764 -31.7943 3.98415 401.764
858 1 -47.6701 1.58672 413.43 -47.6701 1.58672 413.43
868 1 -42.2468 0.852344 412.913 -42.2468 0.852344 412.913
1147 1 -47.5348 0.0443185 416.81 -47.5348 4.47177 416.81
593 1 -34.6075 2.38336 409.287 -34.6075 2.38336 409.287
308 1 -34.8875 1.02521 402.534 -34.8875 1.02521 402.534
861 1 -46.0627 0.0840378 414.73 -46.0627 4.51149 414.73
1158 1 -40.5054 2.23614 417.592 -40.5054 2.23614 417.592
884 1 -33.7341 3.0773 411.627 -33.7341 3.0773 411.627
881 1 -35.2094 3.04107 413.702 -35.2094 3.04107 413.702
885 1 -32.8626 3.77074 413.967 -32.8626 3.77074 413.967
859 1 -46.7986 2.27803 415.77 -46.7986 2.27803 415.77
596 1 -33.1333 2.41786 407.213 -33.1333 2.41786 407.213
879 1 -35.9471 0.80894 414.74 -35.9471 0.80894 414.74
1172 1 -31.9927 0.0363509 416.307 -31.9927 4.4638 416.307
1154 1 -42.8492 1.5058 417.33 -42.8492 1.5058 417.33
887 1 -32.1244 1.57515 412.93 -32.1244 1.57515 412.93
597 1 -32.259 3.11268 409.553 -32.259 3.11268 409.553
1161 1 -39.0303 2.27422 415.514 -39.0303 2.27422 415.514
1138 1 -52.9523 0.774694 417.333 -52.9523 0.774694 417.333
1149 1 -45.9292 2.96902 418.11 -45.9292 2.96902 418.11
41 1 -32.6726 3.28449 399.444 -32.6726 3.28449 399.444
888 1 -31.3863 3.80683 411.893 -31.3863 3.80683 411.893
1165 1 -36.6849 3.00408 415.778 -36.6849 3.00408 415.778
1141 1 -50.6122 1.50631 417.591 -50.6122 1.50631 417.591
1145 1 -48.2711 2.23781 417.85 -48.2711 2.23781 417.85
600 1 -31.6586 2.45112 405.141 -31.6586 2.45112 405.141
1148 1 -46.6662 0.735118 419.15 -46.6662 0.735118 419.15
882 1 -35.3445 0.15198 410.324 -35.3445 4.57943 410.324
1157 1 -41.2431 4.4305 418.631 -41.2431 4.4305 418.631
1144 1 -49.0077 4.43107 418.891 -49.0077 4.43107 418.891
602 1 -30.0454 0.95008 406.444 -30.0454 0.95008 406.444
1755 1 -28.5291 2.80692 425.666 -28.5291 2.80692 425.666
1460 1 -33.3431 2.88643 421.759 -33.3431 2.88643 421.759
2308 1 -41.3665 3.34071 436.556 -41.3665 3.34071 436.556
2316 1 -36.8037 1.92205 433.699 -36.8037 1.92205 433.699
2312 1 -39.0266 4.07496 436.815 -39.0266 4.07496 436.815
1464 1 -30.9979 3.6167 422.024 -30.9979 3.6167 422.024
1461 1 -32.6034 0.691625 420.721 -32.6034 0.691625 420.721
2039 1 -30.6349 3.42451 432.15 -30.6349 3.42451 432.15
2613 1 -32.0041 1.84733 437.597 -32.0041 1.84733 437.597
1467 1 -28.6522 4.34684 422.29 -28.6522 4.34684 422.29
2603 1 -37.4273 2.5747 438.113 -37.4273 2.5747 438.113
1443 1 -42.7191 4.39113 420.709 -42.7191 4.39113 420.709
1748 1 -32.4783 3.57884 424.098 -32.4783 3.57884 424.098
2023 1 -39.1451 1.18905 433.438 -39.1451 1.18905 433.438
2310 1 -39.767 1.84042 437.854 -39.767 1.84042 437.854
1151 1 -44.324 1.4663 419.409 -44.324 1.4663 419.409
2303 1 -44.4455 0.370887 437.338 -44.4455 0.370887 437.338
2299 1 -46.7845 4.06335 437.082 -46.7845 4.06335 437.082
2033 1 -33.72 0.460249 432.923 -33.72 0.460249 432.923
1433 1 -48.1409 0.69408 421.23 -48.1409 0.69408 421.23
1430 1 -49.6163 0.652168 423.311 -49.6163 0.652168 423.311
1426 1 -51.0925 0.609478 425.392 -51.0925 0.609478 425.392
1713 1 -52.5694 0.566155 427.474 -52.5694 0.566155 427.474
1710 1 -54.0469 0.522371 429.555 -54.0469 0.522371 429.555
2330 1 -28.1759 2.61661 435.79 -28.1759 2.61661 435.79
1160 1 -38.8991 0.733494 418.892 -38.8991 0.733494 418.892
1447 1 -40.3759 0.694642 420.97 -40.3759 0.694642 420.97
1444 1 -41.8533 0.655039 423.048 -41.8533 0.655039 423.048
1730 1 -43.3313 0.614678 425.126 -43.3313 0.614678 425.126
1727 1 -44.8097 0.57355 427.205 -44.8097 0.57355 427.205
1724 1 -46.2884 0.531657 429.285 -46.2884 0.531657 429.285
2008 1 -47.7672 0.489029 431.366 -47.7672 0.489029 431.366
2006 1 -49.2457 0.445731 433.447 -49.2457 0.445731 433.447
1458 1 -34.0829 0.653666 422.796 -34.0829 0.653666 422.796
1743 1 -35.5629 0.61525 424.871 -35.5629 0.61525 424.871
1740 1 -37.0434 0.576329 426.947 -37.0434 0.576329 426.947
2026 1 -38.5242 0.536826 429.024 -38.5242 0.536826 429.024
2022 1 -40.0052 0.496635 431.101 -40.0052 0.496635 431.101
2019 1 -41.486 0.455641 433.179 -41.486 0.455641 433.179
2309 1 -40.6263 1.14793 435.516 -40.6263 1.14793 435.516
1137 1 -52.8214 3.65703 420.714 -52.8214 3.65703 420.714
1421 1 -54.2957 3.61388 422.796 -54.2957 3.61388 422.796
1439 1 -45.0616 3.65993 420.449 -45.0616 3.65993 420.449
1435 1 -46.5374 3.6191 422.529 -46.5374 3.6191 422.529
1432 1 -48.0139 3.57743 424.609 -48.0139 3.57743 424.609
1719 1 -49.491 3.53499 426.69 -49.491 3.53499 426.69
1716 1 -50.9686 3.4919 428.771 -50.9686 3.4919 428.771
2001 1 -52.4465 3.44829 430.852 -52.4465 3.44829 430.852
1998 1 -53.9244 3.40432 432.934 -53.9244 3.40432 432.934
2323 1 -32.1193 3.38653 434.223 -32.1193 3.38653 434.223
1453 1 -37.2933 3.65842 420.193 -37.2933 3.65842 420.193
1450 1 -38.7712 3.61969 422.27 -38.7712 3.61969 422.27
1446 1 -40.2497 3.58029 424.347 -40.2497 3.58029 424.347
1732 1 -41.7286 3.54019 426.425 -41.7286 3.54019 426.425
1729 1 -43.2079 3.49935 428.504 -43.2079 3.49935 428.504
2014 1 -44.6874 3.45774 430.583 -44.6874 3.45774 430.583
2011 1 -46.1666 3.41535 432.663 -46.1666 3.41535 432.663
1745 1 -33.9593 3.54063 426.172 -33.9593 3.54063 426.172
1742 1 -35.4407 3.50199 428.247 -35.4407 3.50199 428.247
2028 1 -36.9225 3.46282 430.323 -36.9225 3.46282 430.323
2025 1 -38.4043 3.42299 432.4 -38.4043 3.42299 432.4
1427 1 -51.2188 2.15451 422.012 -51.2188 2.15451 422.012
1424 1 -52.6941 2.11159 424.094 -52.6941 2.11159 424.094
1711 1 -54.1702 2.06803 426.176 -54.1702 2.06803 426.176
2322 1 -32.8615 1.15361 435.26 -32.8615 1.15361 435.26
1750 1 -30.8741 2.0766 425.4 -30.8741 2.0766 425.4
1155 1 -41.981 2.1972 419.67 -41.981 2.1972 419.67
1441 1 -43.4573 2.15741 421.748 -43.4573 2.15741 421.748
1438 1 -44.9342 2.1168 423.827 -44.9342 2.1168 423.827
1725 1 -46.4117 2.0754 425.907 -46.4117 2.0754 425.907
1722 1 -47.8896 2.03323 427.987 -47.8896 2.03323 427.987
1718 1 -49.3678 1.99037 430.068 -49.3678 1.99037 430.068
2003 1 -50.846 1.94692 432.15 -50.846 1.94692 432.15
2000 1 -52.3241 1.90301 434.231 -52.3241 1.90301 434.231
1459 1 -34.2094 2.19404 419.419 -34.2094 2.19404 419.419
1455 1 -35.6879 2.156 421.494 -35.6879 2.156 421.494
1452 1 -37.1669 2.11741 423.57 -37.1669 2.11741 423.57
1737 1 -38.6464 2.07824 425.647 -38.6464 2.07824 425.647
1735 1 -40.1263 2.03842 427.724 -40.1263 2.03842 427.724
2020 1 -41.6064 1.9979 429.802 -41.6064 1.9979 429.802
2017 1 -43.0866 1.95659 431.881 -43.0866 1.95659 431.881
2034 1 -33.8384 2.00029 429.548 -33.8384 2.00029 429.548
2031 1 -35.3211 1.96149 431.623 -35.3211 1.96149 431.623
2029 1 -36.0624 4.15559 432.661 -36.0624 4.15559 432.661
1146 1 -47.4034 2.92844 420.19 -47.4034 2.92844 420.19
1431 1 -48.8785 2.88695 422.27 -48.8785 2.88695 422.27
1428 1 -50.3543 2.84464 424.351 -50.3543 2.84464 424.351
1715 1 -51.8309 2.80161 426.433 -51.8309 2.80161 426.433
1712 1 -53.3081 2.75804 428.514 -53.3081 2.75804 428.514
1747 1 -32.356 2.03861 427.474 -32.356 2.03861 427.474
1449 1 -39.6374 2.92789 419.931 -39.6374 2.92789 419.931
1445 1 -41.1145 2.88866 422.009 -41.1145 2.88866 422.009
1442 1 -42.5922 2.84868 424.087 -42.5922 2.84868 424.087
1728 1 -44.0705 2.80794 426.166 -44.0705 2.80794 426.166
1726 1 -45.549 2.76642 428.245 -45.549 2.76642 428.245
2010 1 -47.0278 2.72416 430.325 -47.0278 2.72416 430.325
2007 1 -48.5065 2.68118 432.406 -48.5065 2.68118 432.406
1456 1 -34.8228 2.84824 423.833 -34.8228 2.84824 423.833
1741 1 -36.3031 2.80958 425.909 -36.3031 2.80958 425.909
1738 1 -37.7838 2.77038 427.985 -37.7838 2.77038 427.985
2024 1 -39.2647 2.73055 430.062 -39.2647 2.73055 430.062
2021 1 -40.7457 2.68997 432.14 -40.7457 2.68997 432.14
2035 1 -32.9782 2.69324 431.886 -32.9782 2.69324 431.886
1754 1 -29.3927 2.11433 423.327 -29.3927 2.11433 423.327
1423 1 -53.5584 1.42183 421.755 -53.5584 1.42183 421.755
2044 1 -27.5485 1.96019 431.38 -27.5485 1.96019 431.38
1437 1 -45.7994 1.4259 421.489 -45.7994 1.4259 421.489
1434 1 -47.2756 1.38464 423.569 -47.2756 1.38464 423.569
1721 1 -48.7524 1.34257 425.649 -48.7524 1.34257 425.649
1717 1 -50.2297 1.2998 427.73 -50.2297 1.2998 427.73
1714 1 -51.7075 1.25643 429.812 -51.7075 1.25643 429.812
1999 1 -53.1854 1.21261 431.893 -53.1854 1.21261 431.893
1164 1 -36.5545 1.46382 419.155 -36.5545 1.46382 419.155
1451 1 -38.0322 1.42541 421.231 -38.0322 1.42541 421.231
1448 1 -39.5104 1.38635 423.308 -39.5104 1.38635 423.308
1734 1 -40.9891 1.3466 425.386 -40.9891 1.3466 425.386
1731 1 -42.4683 1.30614 427.464 -42.4683 1.30614 427.464
2016 1 -43.9477 1.26492 429.543 -43.9477 1.26492 429.543
2012 1 -45.427 1.22292 431.623 -45.427 1.22292 431.623
2009 1 -46.9061 1.18014 433.703 -46.9061 1.18014 433.703
1746 1 -33.2187 1.34606 425.135 -33.2187 1.34606 425.135
1744 1 -34.6999 1.30764 427.21 -34.6999 1.30764 427.21
2030 1 -36.1816 1.26875 429.285 -36.1816 1.26875 429.285
2027 1 -37.6634 1.22928 431.361 -37.6634 1.22928 431.361
2325 1 -31.3771 1.19185 433.187 -31.3771 1.19185 433.187
1749 1 -31.615 4.27137 426.437 -31.615 4.27137 426.437
1425 1 -51.9563 4.34687 423.053 -51.9563 4.34687 423.053
1736 1 -39.3863 4.27214 426.686 -39.3863 4.27214 426.686
1142 1 -49.7445 2.19663 419.931 -49.7445 2.19663 419.931
1720 1 -48.6287 4.22561 429.028 -48.6287 4.22561 429.028
2005 1 -50.1069 4.18244 431.109 -50.1069 4.18244 431.109
2002 1 -51.5851 4.13874 433.19 -51.5851 4.13874 433.19
1169 1 -33.4704 4.42658 418.382 -33.4704 4.42658 418.382
1723 1 -47.1506 4.26813 426.947 -47.1506 4.26813 426.947
1440 1 -44.1957 4.35093 422.788 -44.1957 4.35093 422.788
1733 1 -40.8663 4.23198 428.763 -40.8663 4.23198 428.763
2018 1 -42.3465 4.19107 430.841 -42.3465 4.19107 430.841
2015 1 -43.8265 4.14934 432.921 -43.8265 4.14934 432.921
2036 1 -33.0972 4.23322 428.511 -33.0972 4.23322 428.511
2032 1 -34.5797 4.19468 430.585 -34.5797 4.19468 430.585
2326 1 -30.5189 1.88541 435.524 -30.5189 1.88541 435.524
1752 1 -30.1333 4.30922 424.363 -30.1333 4.30922 424.363
1457 1 -34.9486 4.38882 420.457 -34.9486 4.38882 420.457
2043 1 -28.4087 1.26717 429.042 -28.4087 1.26717 429.042
2286 1 -53.8017 1.85881 436.313 -53.8017 1.85881 436.313
2319 1 -34.3454 1.11464 437.335 -34.3454 1.11464 437.335
1436 1 -45.6729 4.30993 424.867 -45.6729 4.30993 424.867
1422 1 -53.432 4.3036 425.135 -53.432 4.3036 425.135
1173 1 -31.1245 0.729145 418.647 -31.1245 0.729145 418.647
2293 1 -49.8621 1.09252 437.866 -49.8621 1.09252 437.866
2289 1 -52.2011 0.357604 437.61 -52.2011 0.357604 437.61
2295 1 -48.2618 4.0192 439.163 -48.2618 4.0192 439.163
1465 1 -30.2578 1.42177 420.987 -30.2578 1.42177 420.987
2315 1 -36.6863 0.381333 437.074 -36.6863 0.381333 437.074
2331 1 -28.291 4.15531 432.416 -28.291 4.15531 432.416
2297 1 -47.5233 1.82763 438.122 -47.5233 1.82763 438.122
2324 1 -31.2616 4.08019 436.561 -31.2616 4.08019 436.561
2306 1 -42.1064 1.10578 437.596 -42.1064 1.10578 437.596
2285 1 -53.6774 0.313141 439.692 -53.6774 0.313141 439.692
1462 1 -31.738 1.38408 423.061 -31.738 1.38408 423.061
1751 1 -30.0117 2.76926 427.739 -30.0117 2.76926 427.739
2329 1 -29.0336 1.92293 433.452 -29.0336 1.92293 433.452
2042 1 -29.1506 3.46214 430.078 -29.1506 3.46214 430.078
2041 1 -29.8927 1.22963 431.114 -29.8927 1.22963 431.114
2593 1 -42.8459 3.29802 438.636 -42.8459 3.29802 438.636
2328 1 -28.919 0.38432 436.825 -28.919 0.38432 436.825
2301 1 -45.1846 2.56283 438.379 -45.1846 2.56283 438.379
1466 1 -29.518 3.65422 419.95 -29.518 3.65422 419.95
2298 1 -47.6455 3.3722 434.744 -47.6455 3.3722 434.744
2321 1 -33.6035 3.34796 436.298 -33.6035 3.34796 436.298
2313 1 -38.2858 1.88176 435.776 -38.2858 1.88176 435.776
2294 1 -49.1235 3.32837 436.825 -49.1235 3.32837 436.825
2304 1 -43.706 2.60616 436.298 -43.706 2.60616 436.298
2300 1 -46.0454 1.87143 436.041 -46.0454 1.87143 436.041
2290 1 -51.4625 2.5935 436.569 -51.4625 2.5935 436.569
2318 1 -35.2034 0.42123 434.998 -35.2034 0.42123 434.998
2327 1 -29.7763 4.11795 434.488 -29.7763 4.11795 434.488
2004 1 -49.9848 2.63759 434.487 -49.9848 2.63759 434.487
2013 1 -44.5663 1.91443 433.961 -44.5663 1.91443 433.961
2288 1 -53.063 4.09466 435.272 -53.063 4.09466 435.272
2037 1 -32.2365 0.498648 430.849 -32.2365 0.498648 430.849
1739 1 -37.9065 4.31163 424.609 -37.9065 4.31163 424.609
1753 1 -29.2703 0.574383 426.703 -29.2703 0.574383 426.703
2307 1 -42.2262 2.64854 434.218 -42.2262 2.64854 434.218
2314 1 -37.5449 4.11575 434.737 -37.5449 4.11575 434.737
2040 1 -30.7531 0.53664 428.775 -30.7531 0.53664 428.775
2320 1 -34.4618 2.65456 433.96 -34.4618 2.65456 433.96
2292 1 -50.7238 0.40187 435.528 -50.7238 0.40187 435.528
2311 1 -39.8858 3.38234 434.477 -39.8858 3.38234 434.477
2302 1 -45.306 4.10676 435.001 -45.306 4.10676 435.001
2296 1 -48.3846 1.13663 435.784 -48.3846 1.13663 435.784
1463 1 -31.8639 2.92417 419.684 -31.8639 2.92417 419.684
2287 1 -52.9394 2.54911 438.651 -52.9394 2.54911 438.651
2291 1 -50.6004 3.28402 438.907 -50.6004 3.28402 438.907
2317 1 -35.945 2.61513 436.036 -35.945 2.61513 436.036
2038 1 -31.4948 2.73141 429.812 -31.4948 2.73141 429.812
2305 1 -42.9663 0.413742 435.258 -42.9663 0.413742 435.258
2332 1 -27.4328 0.421364 434.754 -27.4328 0.421364 434.754
1468 1 -28.7782 1.45912 418.914 -28.7782 1.45912 418.914
1454 1 -36.4273 4.35051 422.532 -36.4273 4.35051 422.532
1429 1 -50.4815 4.38941 420.972 -50.4815 4.38941 420.972
1175 1 -30.3852 2.96146 417.61 -30.3852 2.96146 417.61
2616 1 -29.5495 1.04112 441.235 -29.5495 1.04112 441.235
2901 1 -31.0345 1.00241 443.309 -31.0345 1.00241 443.309
2907 1 -27.9519 3.96836 442.535 -27.9519 3.96836 442.535
3194 1 -28.5837 0.197248 446.945 -28.5837 0.197248 446.945
2587 1 -45.9233 0.327107 439.42 -45.9233 0.327107 439.42
2597 1 -40.507 4.03304 438.894 -40.507 4.03304 438.894
2584 1 -47.3994 0.28255 441.502 -47.3994 0.28255 441.502
2581 1 -48.8735 0.23749 443.585 -48.8735 0.23749 443.585
2868 1 -50.3457 0.192297 445.668 -50.3457 0.192297 445.668
2865 1 -51.816 0.147401 447.752 -51.816 0.147401 447.752
2601 1 -38.1679 0.3403 439.152 -38.1679 0.3403 439.152
2598 1 -39.6477 0.297933 441.232 -39.6477 0.297933 441.232
2885 1 -41.125 0.254186 443.313 -41.125 0.254186 443.313
2882 1 -42.5993 0.209231 445.396 -42.5993 0.209231 445.396
2879 1 -44.0705 0.163475 447.48 -44.0705 0.163475 447.48
2612 1 -31.89 0.308232 440.972 -31.89 0.308232 440.972
2898 1 -33.3732 0.26825 443.048 -33.3732 0.26825 443.048
2895 1 -34.8535 0.226379 445.126 -34.8535 0.226379 445.126
3180 1 -36.3299 0.18243 447.207 -36.3299 0.18243 447.207
2576 1 -52.0761 3.23938 440.99 -52.0761 3.23938 440.99
2574 1 -53.5504 3.19472 443.073 -53.5504 3.19472 443.073
2589 1 -44.3236 3.25426 440.717 -44.3236 3.25426 440.717
2586 1 -45.7992 3.20959 442.8 -45.7992 3.20959 442.8
2874 1 -47.2724 3.16431 444.883 -47.2724 3.16431 444.883
2871 1 -48.7433 3.11884 446.967 -48.7433 3.11884 446.967
3155 1 -50.212 3.07369 449.051 -50.212 3.07369 449.051
2607 1 -35.0871 3.30849 438.373 -35.0871 3.30849 438.373
2604 1 -36.5692 3.26778 440.45 -36.5692 3.26778 440.45
2600 1 -38.0491 3.22558 442.53 -38.0491 3.22558 442.53
2887 1 -39.5262 3.18179 444.611 -39.5262 3.18179 444.611
2884 1 -40.9998 3.13662 446.694 -40.9998 3.13662 446.694
3168 1 -42.4698 3.09055 448.779 -42.4698 3.09055 448.779
2900 1 -31.776 3.19612 444.347 -31.776 3.19612 444.347
2897 1 -33.2565 3.15444 446.425 -33.2565 3.15444 446.425
2582 1 -48.9999 1.78318 440.204 -48.9999 1.78318 440.204
2579 1 -50.4748 1.73833 442.287 -50.4748 1.73833 442.287
2866 1 -51.9481 1.69342 444.37 -51.9481 1.69342 444.37
2578 1 -51.3384 1.04799 439.948 -51.3384 1.04799 439.948
2595 1 -41.2466 1.79789 439.934 -41.2466 1.79789 439.934
2592 1 -42.7241 1.75415 442.015 -42.7241 1.75415 442.015
2880 1 -44.1991 1.70935 444.097 -44.1991 1.70935 444.097
2877 1 -45.6714 1.66384 446.181 -45.6714 1.66384 446.181
2873 1 -47.1409 1.61813 448.266 -47.1409 1.61813 448.266
2609 1 -33.4883 1.80831 439.672 -33.4883 1.80831 439.672
2606 1 -34.9709 1.76795 441.749 -34.9709 1.76795 441.749
2892 1 -36.4511 1.72591 443.828 -36.4511 1.72591 443.828
2890 1 -37.9278 1.68205 445.909 -37.9278 1.68205 445.909
3174 1 -39.4006 1.63659 447.992 -39.4006 1.63659 447.992
2618 1 -28.8064 3.27368 440.198 -28.8064 3.27368 440.198
2585 1 -46.6616 2.51864 440.461 -46.6616 2.51864 440.461
2583 1 -48.1367 2.47379 442.543 -48.1367 2.47379 442.543
2870 1 -49.6099 2.42861 444.627 -49.6099 2.42861 444.627
2867 1 -51.081 2.38351 446.71 -51.081 2.38351 446.71
2863 1 -52.5505 2.33892 448.794 -52.5505 2.33892 448.794
2599 1 -38.9081 2.53302 440.192 -38.9081 2.53302 440.192
2596 1 -40.3867 2.48995 442.272 -40.3867 2.48995 442.272
2883 1 -41.8625 2.44557 444.354 -41.8625 2.44557 444.354
2881 1 -43.3353 2.40015 446.438 -43.3353 2.40015 446.438
3164 1 -44.8049 2.3542 448.522 -44.8049 2.3542 448.522
2610 1 -32.6319 2.50218 442.009 -32.6319 2.50218 442.009
2896 1 -34.1138 2.4613 444.087 -34.1138 2.4613 444.087
2893 1 -35.5922 2.41839 446.166 -35.5922 2.41839 446.166
3178 1 -37.0664 2.37345 448.249 -37.0664 2.37345 448.249
2575 1 -52.8134 1.00331 442.031 -52.8134 1.00331 442.031
2591 1 -43.585 1.06254 439.676 -43.585 1.06254 439.676
2588 1 -45.0617 1.01829 441.758 -45.0617 1.01829 441.758
2876 1 -46.5361 0.973271 443.841 -46.5361 0.973271 443.841
2872 1 -48.0081 0.92784 445.925 -48.0081 0.92784 445.925
2869 1 -49.4779 0.882469 448.009 -49.4779 0.882469 448.009
2605 1 -35.8284 1.07458 439.412 -35.8284 1.07458 439.412
2602 1 -37.3095 1.03315 441.49 -37.3095 1.03315 441.49
2889 1 -38.7881 0.990151 443.57 -38.7881 0.990151 443.57
2886 1 -40.2634 0.945633 445.652 -40.2634 0.945633 445.652
3170 1 -41.7352 0.899931 447.736 -41.7352 0.899931 447.736
2899 1 -32.5168 0.961843 445.385 -32.5168 0.961843 445.385
3184 1 -33.9952 0.918973 447.465 -33.9952 0.918973 447.465
2580 1 -49.7375 3.97451 441.246 -49.7375 3.97451 441.246
2577 1 -51.2117 3.92959 443.329 -51.2117 3.92959 443.329
2864 1 -52.6841 3.88477 445.412 -52.6841 3.88477 445.412
2862 1 -53.4198 1.6488 446.453 -53.4198 1.6488 446.453
2594 1 -41.9857 3.98989 440.974 -41.9857 3.98989 440.974
2590 1 -43.4619 3.94559 443.056 -43.4619 3.94559 443.056
2878 1 -44.9356 3.90038 445.139 -44.9356 3.90038 445.139
2875 1 -46.4065 3.8547 447.223 -46.4065 3.8547 447.223
3159 1 -47.8747 3.8091 449.308 -47.8747 3.8091 449.308
2611 1 -32.7463 4.04169 438.635 -32.7463 4.04169 438.635
2608 1 -34.2299 4.00205 440.71 -34.2299 4.00205 440.71
2894 1 -35.7114 3.96088 442.788 -35.7114 3.96088 442.788
2891 1 -37.1899 3.91793 444.868 -37.1899 3.91793 444.868
2888 1 -38.6647 3.87322 446.95 -38.6647 3.87322 446.95
2904 1 -29.4377 3.93018 444.608 -29.4377 3.93018 444.608
2621 1 -27.3195 3.31069 438.127 -27.3195 3.31069 438.127
2617 1 -29.6621 2.57936 437.861 -29.6621 2.57936 437.861
2614 1 -31.1477 2.54137 439.934 -31.1477 2.54137 439.934
2908 1 -27.0985 0.235879 444.872 -27.0985 0.235879 444.872
2619 1 -28.063 1.07854 439.162 -28.063 1.07854 439.162
2906 1 -27.8415 2.43057 445.908 -27.8415 2.43057 445.908
2905 1 -28.6951 1.73576 443.571 -28.6951 1.73576 443.571
2620 1 -27.2083 1.77317 441.499 -27.2083 1.77317 441.499
3190 1 -30.9205 3.88995 446.684 -30.9205 3.88995 446.684
2902 1 -30.1795 1.69664 445.646 -30.1795 1.69664 445.646
2903 1 -30.2923 3.23569 442.271 -30.2923 3.23569 442.271
2615 1 -30.405 0.346757 438.898 -30.405 0.346757 438.898
2909 1 -26.3549 2.46818 443.836 -26.3549 2.46818 443.836
14 1 -49.9109 0.396899 398.731 -49.9109 4.82435 398.731
7 1 -54.4735 3.34399 398.312 -54.4735 3.34399 398.312
25 1 -42.1 0.396237 398.4 -42.1 4.82369 398.4
38 1 -34.2752 0.334193 398.102 -34.2752 4.76165 398.102
23 1 -43.5635 0.346093 400.464 -43.5635 4.77355 400.464
287 1 -46.4892 0.270868 404.593 -46.4892 4.69832 404.593
878 1 -36.8185 0.116005 412.4 -36.8185 4.54346 412.4
579 1 -43.1206 0.159952 410.573 -43.1206 4.5874 410.573
585 1 -40.1798 0.231033 406.419 -40.1798 4.65849 406.419
290 1 -45.0282 0.307553 402.521 -45.0282 4.73501 402.521
11 1 -51.3316 0.335149 400.735 -51.3316 4.7626 400.735
595 1 -33.8704 0.187044 408.25 -33.8704 4.6145 408.25
283 1 -47.9541 0.236588 406.669 -47.9541 4.66404 406.669
582 1 -41.6501 0.196043 408.496 -41.6501 4.6235 408.496
276 1 -52.8034 0.319578 402.777 -52.8034 4.74703 402.777
569 1 -49.4196 0.201659 408.747 -49.4196 4.62911 408.747
847 1 -53.8218 0.0848898 414.992 -53.8218 4.51234 414.992
272 1 -54.2568 0.287759 404.846 -54.2568 4.71521 404.846
35 1 -35.7594 0.324313 400.184 -35.7594 4.75177 400.184
598 1 -32.3959 0.220996 406.177 -32.3959 4.64845 406.177
850 1 -52.353 0.125167 412.91 -52.353 4.55262 412.91
304 1 -37.2366 0.297715 402.267 -37.2366 4.72517 402.267
301 1 -38.7091 0.264919 404.343 -38.7091 4.69237 404.343
314 1 -30.9204 0.253763 404.105 -30.9204 4.68122 404.105
864 1 -44.5915 0.122655 412.651 -44.5915 4.55011 412.651
566 1 -50.8855 0.164059 410.828 -50.8855 4.59151 410.828
1176 1 -30.5154 0.0729989 414.233 -30.5154 4.50045 414.233
85 1 -5.58304 1.1722 393.752 -5.58304 1.1722 393.752
58 1 -22.6327 1.08218 396.159 -22.6327 1.08218 396.159
45 1 -30.4832 1.13819 396.452 -30.4832 1.13819 396.452
49 1 -28.0831 1.82069 396.652 -28.0831 1.82069 396.652
72 1 -14.1335 3.35464 394.978 -14.1335 3.35464 394.978
80 1 -8.65029 2.59689 394.472 -8.65029 2.59689 394.472
75 1 -11.7352 4.0416 395.183 -11.7352 4.0416 395.183
83 1 -6.30628 3.37051 394.685 -6.30628 3.37051 394.685
52 1 -25.7444 2.59874 396.893 -25.7444 2.59874 396.893
61 1 -20.2943 1.86153 396.402 -20.2943 1.86153 396.402
63 1 -19.5818 4.0893 395.466 -19.5818 4.0893 395.466
87 1 -3.93026 4.05883 394.905 -3.93026 4.05883 394.905
70 1 -14.8442 1.12698 395.914 -14.8442 1.12698 395.914
47 1 -28.8262 4.02134 397.604 -28.8262 4.02134 397.604
912 1 -16.5528 1.56541 412.48 -16.5528 1.56541 412.48
637 1 -10.623 1.71109 404.215 -10.623 1.71109 404.215