ITEM: TIMESTEP
0
ITEM: NUMBER OF ATOMS
4630
ITEM: BOX BOUNDS xy xz yz pp pp pp
-5.9040988501800001e+01 1.0206002035000000e+02 0.0000000000000000e+00
0.0000000000000000e+00 4.4274527100805940e+00 0.0000000000000000e+00
3.8000000000000000e+02 5.0000000000000000e+02 0.0000000000000000e+00
ITEM: ATOMS id type x y z xu yu zu
27 1 -42.9836 2.65069 398.424 -42.9836 2.65069 398.424
36 1 -37.5876 1.90134 398.406 -37.5876 1.90134 398.406
31 1 -40.6176 3.3148 398.828 -40.6176 3.3148 398.828
22 1 -46.0457 4.07318 398.886 -46.0457 4.07318 398.886
20 1 -46.8192 1.86006 399.781 -46.8192 1.86006 399.781
40 1 -35.2245 2.56832 398.816 -35.2245 2.56832 398.816
34 1 -38.344 4.10384 399.291 -38.344 4.10384 399.291
17 1 -49.1005 1.09277 399.331 -49.1005 1.09277 399.331
9 1 -54.4433 1.7684 399.324 -54.4433 1.7684 399.324
43 1 -32.9541 3.35895 399.283 -32.9541 3.35895 399.283
12 1 -52.2079 2.62767 399.816 -52.2079 2.62767 399.816
5 1 -56.8035 1.15718 398.917 -56.8035 1.15718 398.917
29 1 -41.4275 1.09177 399.717 -41.4275 1.09177 399.717
853 1 -53.5328 3.04926 414.4 -53.5328 3.04926 414.4
873 1 -42.7875 1.56584 414.356 -42.7875 1.56584 414.356
865 1 -46.6849 0.800732 415.831 -46.6849 0.800732 415.831
1174 1 -34.4633 2.23888 417.252 -34.4633 2.23888 417.252
883 1 -37.4139 0.824017 414.339 -37.4139 0.824017 414.339
863 1 -48.1607 2.30797 414.378 -48.1607 2.30797 414.378
315 1 -33.0943 1.7842 402.654 -33.0943 1.7842 402.654
307 1 -37.8106 3.22415 405.093 -37.8106 3.22415 405.093
1150 1 -48.2995 0.7614 417.785 -48.2995 0.7614 417.785
855 1 -52.0574 1.5423 415.854 -52.0574 1.5423 415.854
310 1 -36.1952 3.26032 403.147 -36.1952 3.26032 403.147
871 1 -43.5947 3.76016 415.332 -43.5947 3.76016 415.332
16 1 -49.8952 3.29863 400.227 -49.8952 3.29863 400.227
309 1 -36.3306 1.71657 406.548 -36.3306 1.71657 406.548
1156 1 -45.2094 3.72112 417.285 -45.2094 3.72112 417.285
867 1 -45.8777 3.03401 414.855 -45.8777 3.03401 414.855
1159 1 -42.9268 0.0201873 417.763 -42.9268 4.44764 417.763
1168 1 -37.554 3.70685 417.747 -37.554 3.70685 417.747
1170 1 -36.7462 1.51231 416.771 -36.7462 1.51231 416.771
594 1 -37.1381 3.91232 407.523 -37.1381 3.91232 407.523
37 1 -36.8584 2.55823 400.722 -36.8584 2.55823 400.722
851 1 -54.3398 0.815973 415.377 -54.3398 0.815973 415.377
857 1 -51.2505 3.77573 414.877 -51.2505 3.77573 414.877
592 1 -37.9453 1.68013 408.499 -37.9453 1.68013 408.499
849 1 -55.1467 3.01004 416.353 -55.1467 3.01004 416.353
877 1 -40.5044 2.29218 414.835 -40.5044 2.29218 414.835
1143 1 -52.8645 3.73627 416.831 -52.8645 3.73627 416.831
1140 1 -54.4787 3.69647 418.784 -54.4787 3.69647 418.784
845 1 -57.4289 2.28437 415.877 -57.4289 2.28437 415.877
875 1 -41.3118 0.0591135 415.811 -41.3118 4.48657 415.811
886 1 -35.7989 0.861822 412.388 -35.7989 0.861822 412.388
891 1 -32.707 3.81979 411.895 -32.707 3.81979 411.895
39 1 -35.3922 1.063 402.171 -35.3922 1.063 402.171
1177 1 -32.9884 0.732841 418.71 -32.9884 0.732841 418.71
1167 1 -38.3618 1.47383 418.722 -38.3618 1.47383 418.722
8 1 -55.2817 4.04042 400.329 -55.2817 4.04042 400.329
869 1 -44.402 1.52695 416.309 -44.402 1.52695 416.309
1136 1 -56.7607 2.97029 418.307 -56.7607 2.97029 418.307
1162 1 -41.452 2.94116 419.218 -41.452 2.94116 419.218
15 1 -50.714 1.08075 401.247 -50.714 1.08075 401.247
280 1 -52.3217 1.05077 403.201 -52.3217 1.05077 403.201
277 1 -53.9338 1.0252 405.151 -53.9338 1.0252 405.151
273 1 -55.5416 0.987445 407.109 -55.5416 0.987445 407.109
560 1 -57.1542 0.950838 409.064 -57.1542 0.950838 409.064
557 1 -58.7676 0.913532 411.017 -58.7676 0.913532 411.017
26 1 -43.0515 1.07828 401.685 -43.0515 1.07828 401.685
294 1 -44.6677 1.04864 403.654 -44.6677 1.04864 403.654
291 1 -46.2799 1.01164 405.61 -46.2799 1.01164 405.61
576 1 -47.8902 0.972323 407.564 -47.8902 0.972323 407.564
573 1 -49.5012 0.933385 409.517 -49.5012 0.933385 409.517
570 1 -51.113 0.894157 411.47 -51.113 0.894157 411.47
854 1 -52.726 0.85503 413.423 -52.726 0.85503 413.423
305 1 -38.6171 0.992164 406.067 -38.6171 0.992164 406.067
589 1 -40.2302 0.954693 408.019 -40.2302 0.954693 408.019
586 1 -41.8433 0.916756 409.972 -41.8433 0.916756 409.972
872 1 -43.4567 0.878425 411.925 -43.4567 0.878425 411.925
599 1 -34.1835 0.898895 410.438 -34.1835 0.898895 410.438
4 1 -56.9003 4.05229 402.229 -56.9003 4.05229 402.229
268 1 -58.4942 4.00723 404.21 -58.4942 4.00723 404.21
1152 1 -47.4921 2.99483 416.808 -47.4921 2.99483 416.808
19 1 -47.6373 4.04641 400.77 -47.6373 4.04641 400.77
286 1 -49.2411 4.00897 402.689 -49.2411 4.00897 402.689
282 1 -50.8438 3.9742 404.648 -50.8438 3.9742 404.648
279 1 -52.454 3.94239 406.603 -52.454 3.94239 406.603
565 1 -54.0643 3.90587 408.56 -54.0643 3.90587 408.56
563 1 -55.6771 3.86891 410.515 -55.6771 3.86891 410.515
846 1 -57.2909 3.83153 412.469 -57.2909 3.83153 412.469
32 1 -39.9659 4.04471 401.219 -39.9659 4.04471 401.219
300 1 -41.5787 4.00735 403.161 -41.5787 4.00735 403.161
297 1 -43.1892 3.96934 405.111 -43.1892 3.96934 405.111
293 1 -44.8003 3.93175 407.064 -44.8003 3.93175 407.064
578 1 -46.4118 3.89323 409.017 -46.4118 3.89323 409.017
575 1 -48.024 3.85436 410.971 -48.024 3.85436 410.971
860 1 -49.6369 3.81511 412.924 -49.6369 3.81511 412.924
591 1 -38.7524 3.87515 409.475 -38.7524 3.87515 409.475
588 1 -40.3663 3.83725 411.427 -40.3663 3.83725 411.427
874 1 -41.9803 3.79888 413.379 -41.9803 3.79888 413.379
10 1 -53.8092 2.55398 401.755 -53.8092 2.55398 401.755
274 1 -55.4189 2.54053 403.696 -55.4189 2.54053 403.696
271 1 -57.0196 2.49785 405.659 -57.0196 2.49785 405.659
558 1 -58.6319 2.46114 407.612 -58.6319 2.46114 407.612
24 1 -44.5593 2.60454 400.3 -44.5593 2.60454 400.3
21 1 -46.162 2.55861 402.214 -46.162 2.55861 402.214
288 1 -47.7634 2.5187 404.159 -47.7634 2.5187 404.159
285 1 -49.3689 2.47682 406.11 -49.3689 2.47682 406.11
571 1 -50.9782 2.43861 408.062 -50.9782 2.43861 408.062
568 1 -52.5889 2.39999 410.015 -52.5889 2.39999 410.015
852 1 -54.2015 2.36163 411.969 -54.2015 2.36163 411.969
848 1 -55.8151 2.32334 413.923 -55.8151 2.32334 413.923
306 1 -38.4809 2.53108 402.661 -38.4809 2.53108 402.661
302 1 -40.0962 2.49784 404.609 -40.0962 2.49784 404.609
299 1 -41.7085 2.46116 406.563 -41.7085 2.46116 406.563
583 1 -43.321 2.4238 408.517 -43.321 2.4238 408.517
581 1 -44.9338 2.38566 410.471 -44.9338 2.38566 410.471
866 1 -46.547 2.34703 412.424 -46.547 2.34703 412.424
880 1 -38.8899 2.33057 412.883 -38.8899 2.33057 412.883
312 1 -34.7143 1.75167 404.598 -34.7143 1.75167 404.598
2 1 -58.4063 1.1746 400.825 -58.4063 1.1746 400.825
13 1 -51.5097 3.27506 402.203 -51.5097 3.27506 402.203
278 1 -53.1272 3.25266 404.167 -53.1272 3.25266 404.167
275 1 -54.7364 3.22016 406.127 -54.7364 3.22016 406.127
562 1 -56.3472 3.18268 408.086 -56.3472 3.18268 408.086
559 1 -57.9608 3.14609 410.04 -57.9608 3.14609 410.04
1166 1 -39.1697 3.66816 419.698 -39.1697 3.66816 419.698
889 1 -33.515 1.58766 412.87 -33.515 1.58766 412.87
28 1 -42.2483 3.30791 400.736 -42.2483 3.30791 400.736
296 1 -43.8638 3.27864 402.681 -43.8638 3.27864 402.681
292 1 -45.4752 3.24427 404.634 -45.4752 3.24427 404.634
289 1 -47.085 3.20587 406.587 -47.085 3.20587 406.587
574 1 -48.6955 3.16666 408.54 -48.6955 3.16666 408.54
572 1 -50.3069 3.12757 410.493 -50.3069 3.12757 410.493
856 1 -51.9194 3.0883 412.447 -51.9194 3.0883 412.447
303 1 -39.424 3.18715 407.043 -39.424 3.18715 407.043
587 1 -41.0368 3.14945 408.995 -41.0368 3.14945 408.995
584 1 -42.65 3.11135 410.948 -42.65 3.11135 410.948
870 1 -44.2636 3.07285 412.901 -44.2636 3.07285 412.901
6 1 -56.0979 1.84963 401.243 -56.0979 1.84963 401.243
270 1 -57.6909 1.81223 403.224 -57.6909 1.81223 403.224
890 1 -32.8472 2.27644 415.303 -32.8472 2.27644 415.303
18 1 -48.4351 1.81443 401.721 -48.4351 1.81443 401.721
284 1 -50.0392 1.7786 403.673 -50.0392 1.7786 403.673
281 1 -51.649 1.74563 405.628 -51.649 1.74563 405.628
567 1 -53.259 1.7109 407.583 -53.259 1.7109 407.583
564 1 -54.8705 1.67366 409.538 -54.8705 1.67366 409.538
561 1 -56.4841 1.63665 411.492 -56.4841 1.63665 411.492
844 1 -58.0977 1.59865 413.446 -58.0977 1.59865 413.446
33 1 -39.1703 1.85156 400.277 -39.1703 1.85156 400.277
30 1 -40.7796 1.80995 402.181 -40.7796 1.80995 402.181
298 1 -42.3844 1.77372 404.132 -42.3844 1.77372 404.132
295 1 -43.9947 1.73683 406.087 -43.9947 1.73683 406.087
580 1 -45.606 1.6988 408.04 -45.606 1.6988 408.04
577 1 -47.2178 1.66008 409.994 -47.2178 1.66008 409.994
862 1 -48.8303 1.62103 411.947 -48.8303 1.62103 411.947
590 1 -39.5593 1.64255 410.451 -39.5593 1.64255 410.451
876 1 -41.1732 1.6044 412.403 -41.1732 1.6044 412.403
1163 1 -40.6443 0.74694 418.242 -40.6443 0.74694 418.242
1153 1 -46.8244 3.68175 419.238 -46.8244 3.68175 419.238
311 1 -35.522 3.94822 405.573 -35.522 3.94822 405.573
42 1 -33.7781 1.10667 400.27 -33.7781 1.10667 400.27
1135 1 -57.5676 0.736442 419.284 -57.5676 0.736442 419.284
1171 1 -36.0793 2.20076 419.203 -36.0793 2.20076 419.203
1139 1 -55.2857 1.46266 419.761 -55.2857 1.46266 419.761
601 1 -33.3756 3.13081 409.463 -33.3756 3.13081 409.463
313 1 -33.9023 3.98312 403.621 -33.9023 3.98312 403.621
858 1 -50.4436 1.58169 413.901 -50.4436 1.58169 413.901
868 1 -45.0706 0.83975 413.878 -45.0706 0.83975 413.878
1147 1 -50.5821 0.0351328 417.308 -50.5821 4.46259 417.308
843 1 -58.9045 3.79287 414.423 -58.9045 3.79287 414.423
593 1 -37.2754 2.36848 410.931 -37.2754 2.36848 410.931
308 1 -37.0031 1.02789 404.117 -37.0031 1.02789 404.117
861 1 -48.9677 0.0745978 415.354 -48.9677 4.50205 415.354
1158 1 -43.7344 2.21433 418.74 -43.7344 2.21433 418.74
884 1 -36.6064 3.05672 413.363 -36.6064 3.05672 413.363
881 1 -38.2215 3.01863 415.315 -38.2215 3.01863 415.315
885 1 -35.9384 3.74509 415.796 -35.9384 3.74509 415.796
859 1 -49.7749 2.26862 416.331 -49.7749 2.26862 416.331
596 1 -35.6607 2.40567 408.98 -35.6607 2.40567 408.98
879 1 -39.029 0.785685 416.291 -39.029 0.785685 416.291
1172 1 -35.2713 0.00616109 418.228 -35.2713 4.43361 418.228
1154 1 -46.0169 1.48775 418.262 -46.0169 1.48775 418.262
887 1 -35.1306 1.55029 414.82 -35.1306 1.55029 414.82
597 1 -34.9913 3.09419 411.413 -34.9913 3.09419 411.413
1161 1 -42.1193 2.25342 416.787 -42.1193 2.25342 416.787
1138 1 -55.9537 0.776518 417.33 -55.9537 0.776518 417.33
1149 1 -49.1068 2.95534 418.761 -49.1068 2.95534 418.761
41 1 -34.5775 3.29775 401.21 -34.5775 3.29775 401.21
888 1 -34.3228 3.78279 413.845 -34.3228 3.78279 413.845
1165 1 -39.8367 2.98009 417.266 -39.8367 2.98009 417.266
1141 1 -53.6716 1.50269 417.807 -53.6716 1.50269 417.807
1145 1 -51.3893 2.22902 418.284 -51.3893 2.22902 418.284
600 1 -34.0453 2.44192 407.031 -34.0453 2.44192 407.031
1148 1 -49.9142 0.721746 419.738 -49.9142 0.721746 419.738
882 1 -38.0826 0.135867 411.907 -38.0826 4.56332 411.907
1157 1 -44.542 4.40839 419.716 -44.542 4.40839 419.716
1144 1 -52.1965 4.42282 419.261 -52.1965 4.42282 419.261
602 1 -32.5673 0.935 408.488 -32.5673 0.935 408.488
1755 1 -32.6096 2.76199 427.955 -32.6096 2.76199 427.955
1460 1 -37.0295 2.85065 423.585 -37.0295 2.85065 423.585
2308 1 -46.0521 3.29552 437.733 -46.0521 3.29552 437.733
2316 1 -41.3529 1.87312 435.281 -41.3529 1.87312 435.281
2312 1 -43.7725 4.0247 438.212 -43.7725 4.0247 438.212
1464 1 -34.7476 3.57821 424.066 -34.7476 3.57821 424.066
1461 1 -36.2214 0.656361 422.61 -36.2214 0.656361 422.61
2039 1 -35.1784 3.37212 434.287 -35.1784 3.37212 434.287
2613 1 -36.935 1.78563 439.648 -36.935 1.78563 439.648
1467 1 -32.4656 4.30571 424.548 -32.4656 4.30571 424.548
2603 1 -42.2992 2.51954 439.667 -42.2992 2.51954 439.667
1443 1 -46.1572 4.36879 421.669 -46.1572 4.36879 421.669
1748 1 -36.3642 3.53931 426.017 -36.3642 3.53931 426.017
2023 1 -43.6328 1.14407 434.802 -43.6328 1.14407 434.802
2310 1 -44.5785 1.79014 439.189 -44.5785 1.79014 439.189
1151 1 -47.6319 1.44822 420.215 -47.6319 1.44822 420.215
2303 1 -49.1381 0.332072 438.233 -49.1381 0.332072 438.233
2299 1 -51.4186 4.03106 437.755 -51.4186 4.03106 437.755
2033 1 -38.2659 0.409041 434.784 -38.2659 0.409041 434.784
1433 1 -51.5289 0.681698 421.691 -51.5289 0.681698 421.691
1430 1 -53.1434 0.64122 423.645 -53.1434 0.64122 423.645
1426 1 -54.7577 0.60035 425.599 -54.7577 0.60035 425.599
1713 1 -56.3718 0.559181 427.554 -56.3718 0.559181 427.554
1710 1 -57.9857 0.517838 429.508 -57.9857 0.517838 429.508
2330 1 -33.0419 2.55615 438.176 -33.0419 2.55615 438.176
1160 1 -42.2597 0.707828 420.195 -42.2597 0.707828 420.195
1447 1 -43.8752 0.668352 422.147 -43.8752 0.668352 422.147
1444 1 -45.4905 0.628488 424.1 -45.4905 0.628488 424.1
1730 1 -47.1056 0.588215 426.053 -47.1056 0.588215 426.053
1727 1 -48.7203 0.547538 428.007 -48.7203 0.547538 428.007
1724 1 -50.3345 0.50651 429.961 -50.3345 0.50651 429.961
2008 1 -51.9483 0.465223 431.915 -51.9483 0.465223 431.915
2006 1 -53.5616 0.423795 433.869 -53.5616 0.423795 433.869
1458 1 -37.8377 0.617366 424.561 -37.8377 0.617366 424.561
1743 1 -39.4538 0.577875 426.513 -39.4538 0.577875 426.513
1740 1 -41.0695 0.53789 428.465 -41.0695 0.53789 428.465
2026 1 -42.6846 0.497422 430.417 -42.6846 0.497422 430.417
2022 1 -44.2991 0.456516 432.37 -44.2991 0.456516 432.37
2019 1 -45.9129 0.415249 434.324 -45.9129 0.415249 434.324
2309 1 -45.2459 1.10261 436.756 -45.2459 1.10261 436.756
1137 1 -56.0928 3.65618 420.738 -56.0928 3.65618 420.738
1421 1 -57.7069 3.61542 422.692 -57.7069 3.61542 422.692
1439 1 -48.4394 3.64204 421.192 -48.4394 3.64204 421.192
1435 1 -50.0542 3.60193 423.145 -50.0542 3.60193 423.145
1432 1 -51.6688 3.5614 425.099 -51.6688 3.5614 425.099
1719 1 -53.2832 3.52049 427.053 -53.2832 3.52049 427.053
1716 1 -54.8972 3.4793 429.007 -54.8972 3.4793 429.007
2001 1 -56.511 3.43795 430.962 -56.511 3.43795 430.962
1998 1 -58.1244 3.39657 432.916 -58.1244 3.39657 432.916
2323 1 -36.7935 3.33157 436.24 -36.7935 3.33157 436.24
1453 1 -40.7854 3.62906 421.65 -40.7854 3.62906 421.65
1450 1 -42.4011 3.58955 423.602 -42.4011 3.58955 423.602
1446 1 -44.0166 3.54962 425.554 -44.0166 3.54962 425.554
1732 1 -45.6317 3.50927 427.507 -45.6317 3.50927 427.507
1729 1 -47.2463 3.46851 429.461 -47.2463 3.46851 429.461
2014 1 -48.8605 3.4274 431.415 -48.8605 3.4274 431.415
2011 1 -50.474 3.38603 433.369 -50.474 3.38603 433.369
1745 1 -37.9805 3.49986 427.968 -37.9805 3.49986 427.968
1742 1 -39.5963 3.45988 429.92 -39.5963 3.45988 429.92
2028 1 -41.2115 3.41938 431.872 -41.2115 3.41938 431.872
2025 1 -42.8259 3.37842 433.825 -42.8259 3.37842 433.825
1427 1 -54.6181 2.14864 422.192 -54.6181 2.14864 422.192
1424 1 -56.2323 2.10781 424.146 -56.2323 2.10781 424.146
1711 1 -57.8463 2.06666 426.1 -57.8463 2.06666 426.1
2322 1 -37.6006 1.09736 437.216 -37.6006 1.09736 437.216
1750 1 -34.8911 2.03399 427.473 -34.8911 2.03399 427.473
1155 1 -45.3496 2.1749 420.693 -45.3496 2.1749 420.693
1441 1 -46.9648 2.13512 422.646 -46.9648 2.13512 422.646
1438 1 -48.5798 2.09493 424.599 -48.5798 2.09493 424.599
1725 1 -50.1945 2.05433 426.553 -50.1945 2.05433 426.553
1722 1 -51.8088 2.01337 428.507 -51.8088 2.01337 428.507
1718 1 -53.4227 1.97215 430.461 -53.4227 1.97215 430.461
2003 1 -55.0363 1.93077 432.415 -55.0363 1.93077 432.415
2000 1 -56.6494 1.88937 434.37 -56.6494 1.88937 434.37
1459 1 -37.6954 2.16216 421.154 -37.6954 2.16216 421.154
1455 1 -39.3114 2.12309 423.105 -39.3114 2.12309 423.105
1452 1 -40.9273 2.08358 425.057 -40.9273 2.08358 425.057
1737 1 -42.5429 2.04361 427.009 -42.5429 2.04361 427.009
1735 1 -44.158 2.00319 428.962 -44.158 2.00319 428.962
2020 1 -45.7726 1.96235 430.915 -45.7726 1.96235 430.915
2017 1 -47.3866 1.92116 432.869 -47.3866 1.92116 432.869
2034 1 -38.1234 1.95463 431.376 -38.1234 1.95463 431.376
2031 1 -39.7386 1.91412 433.328 -39.7386 1.91412 433.328
2029 1 -40.5458 4.1074 434.304 -40.5458 4.1074 434.304
1146 1 -50.7216 2.9155 420.715 -50.7216 2.9155 420.715
1431 1 -52.3362 2.87524 422.668 -52.3362 2.87524 422.668
1428 1 -53.9506 2.83456 424.622 -53.9506 2.83456 424.622
1715 1 -55.5648 2.79352 426.577 -55.5648 2.79352 426.577
1712 1 -57.1787 2.75225 428.531 -57.1787 2.75225 428.531
1708 1 -58.7925 2.71087 430.485 -58.7925 2.71087 430.485
1747 1 -36.5075 1.9946 429.424 -36.5075 1.9946 429.424
1449 1 -43.0675 2.90186 421.171 -43.0675 2.90186 421.171
1445 1 -44.6829 2.8622 423.123 -44.6829 2.8622 423.123
1442 1 -46.2981 2.82213 425.076 -46.2981 2.82213 425.076
1728 1 -47.913 2.78165 427.03 -47.913 2.78165 427.03
1726 1 -49.5275 2.74079 428.984 -49.5275 2.74079 428.984
2010 1 -51.1415 2.69962 430.938 -51.1415 2.69962 430.938
2007 1 -52.755 2.65824 432.892 -52.755 2.65824 432.892
1456 1 -38.6458 2.81141 425.537 -38.6458 2.81141 425.537
1741 1 -40.2617 2.77167 427.488 -40.2617 2.77167 427.488
1738 1 -41.8771 2.73144 429.441 -41.8771 2.73144 429.441
2024 1 -43.492 2.69075 431.394 -43.492 2.69075 431.394
2021 1 -45.1061 2.64965 433.347 -45.1061 2.64965 433.347
2035 1 -37.4585 2.6431 433.807 -37.4585 2.6431 433.807
1754 1 -33.2742 2.07279 425.523 -33.2742 2.07279 425.523
1423 1 -56.8998 1.42213 421.715 -56.8998 1.42213 421.715
1420 1 -58.5139 1.38116 423.669 -58.5139 1.38116 423.669
2044 1 -32.0901 1.90726 433.793 -32.0901 1.90726 433.793
1437 1 -49.2468 1.40831 422.168 -49.2468 1.40831 422.168
1434 1 -50.8616 1.36799 424.122 -50.8616 1.36799 424.122
1721 1 -52.4761 1.32726 426.076 -52.4761 1.32726 426.076
1717 1 -54.0902 1.2862 428.03 -54.0902 1.2862 428.03
1714 1 -55.7041 1.24491 429.985 -55.7041 1.24491 429.985
1999 1 -57.3177 1.20353 431.939 -57.3177 1.20353 431.939
1997 1 -58.931 1.16218 433.894 -58.931 1.16218 433.894
1164 1 -39.9775 1.43493 420.674 -39.9775 1.43493 420.674
1451 1 -41.5933 1.39563 422.626 -41.5933 1.39563 422.626
1448 1 -43.2089 1.35591 424.578 -43.2089 1.35591 424.578
1734 1 -44.8242 1.31577 426.531 -44.8242 1.31577 426.531
1731 1 -46.4391 1.27521 428.484 -46.4391 1.27521 428.484
2016 1 -48.0535 1.23427 430.438 -48.0535 1.23427 430.438
2012 1 -49.6673 1.19301 432.392 -49.6673 1.19301 432.392
2009 1 -51.2806 1.15157 434.346 -51.2806 1.15157 434.346
1746 1 -37.1724 1.30592 426.993 -37.1724 1.30592 426.993
1744 1 -38.7885 1.26621 428.944 -38.7885 1.26621 428.944
2030 1 -40.404 1.22596 430.896 -40.404 1.22596 430.896
2027 1 -42.0188 1.18523 432.849 -42.0188 1.18523 432.849
2325 1 -35.9861 1.13819 435.263 -35.9861 1.13819 435.263
1749 1 -35.6994 4.22809 428.449 -35.6994 4.22809 428.449
1425 1 -55.4252 4.342 423.169 -55.4252 4.342 423.169
1736 1 -43.3505 4.23719 427.986 -43.3505 4.23719 427.986
1142 1 -53.0037 2.18905 420.238 -53.0037 2.18905 420.238
1720 1 -52.6158 4.20651 429.484 -52.6158 4.20651 429.484
2005 1 -54.2296 4.16519 431.438 -54.2296 4.16519 431.438
2002 1 -55.8429 4.12379 433.393 -55.8429 4.12379 433.393
1169 1 -36.8873 4.39524 420.178 -36.8873 4.39524 420.178
1723 1 -51.0017 4.24762 427.53 -51.0017 4.24762 427.53
1440 1 -47.7723 4.3288 423.622 -47.7723 4.3288 423.622
1733 1 -44.9654 4.19655 429.939 -44.9654 4.19655 429.939
2018 1 -46.5797 4.15552 431.892 -46.5797 4.15552 431.892
2015 1 -48.1933 4.11419 433.846 -48.1933 4.11419 433.846
2036 1 -37.3156 4.18841 430.4 -37.3156 4.18841 430.4
2032 1 -38.9311 4.14816 432.352 -38.9311 4.14816 432.352
2326 1 -35.3212 1.82676 437.696 -35.3212 1.82676 437.696
1752 1 -34.0827 4.26719 426.498 -34.0827 4.26719 426.498
1457 1 -38.5034 4.35641 422.13 -38.5034 4.35641 422.13
2043 1 -32.754 1.21804 431.361 -32.754 1.21804 431.361
2286 1 -58.2622 1.84808 436.325 -58.2622 1.84808 436.325
2319 1 -39.214 1.05609 439.169 -39.214 1.05609 439.169
1436 1 -49.3872 4.2884 425.576 -49.3872 4.2884 425.576
1422 1 -57.0393 4.301 425.123 -57.0393 4.301 425.123
1173 1 -34.6049 0.69486 420.66 -34.6049 0.69486 420.66
2293 1 -54.5054 1.06859 438.255 -54.5054 1.06859 438.255
2289 1 -56.7868 0.341031 437.779 -56.7868 0.341031 437.779
2295 1 -53.0302 3.98953 439.71 -53.0302 3.98953 439.71
1465 1 -33.9392 1.38374 423.091 -33.9392 1.38374 423.091
2315 1 -41.4931 0.32661 438.69 -41.4931 0.32661 438.69
2331 1 -32.8983 4.10111 434.768 -32.8983 4.10111 434.768
2297 1 -52.2245 1.79655 438.732 -52.2245 1.79655 438.732
2324 1 -36.1283 4.01998 438.672 -36.1283 4.01998 438.672
2306 1 -46.8581 1.06095 438.71 -46.8581 1.06095 438.71
2285 1 -58.3986 0.299941 439.733 -58.3986 0.299941 439.733
1462 1 -35.556 1.3451 425.042 -35.556 1.3451 425.042
1751 1 -34.2266 2.72298 429.905 -34.2266 2.72298 429.905
2329 1 -33.7062 1.86734 435.744 -33.7062 1.86734 435.744
2042 1 -33.5623 3.41205 432.336 -33.5623 3.41205 432.336
2041 1 -34.3705 1.17844 433.312 -34.3705 1.17844 433.312
2593 1 -47.6639 3.25382 439.688 -47.6639 3.25382 439.688
2328 1 -33.8492 0.322029 439.152 -33.8492 0.322029 439.152
2301 1 -49.944 2.52497 439.21 -49.944 2.52497 439.21
1466 1 -33.1308 3.61659 422.116 -33.1308 3.61659 422.116
2298 1 -52.087 3.34453 435.323 -52.087 3.34453 435.323
2321 1 -38.4074 3.2905 438.192 -38.4074 3.2905 438.192
2313 1 -42.9662 1.83175 437.235 -42.9662 1.83175 437.235
2294 1 -53.6994 3.30303 437.278 -53.6994 3.30303 437.278
2304 1 -48.3321 2.56663 437.255 -48.3321 2.56663 437.255
2300 1 -50.6125 1.83813 436.778 -50.6125 1.83813 436.778
2290 1 -55.9807 2.5754 436.801 -55.9807 2.5754 436.801
2318 1 -39.8801 0.368015 436.737 -39.8801 0.368015 436.737
2327 1 -34.5139 4.06085 436.719 -34.5139 4.06085 436.719
2004 1 -54.3681 2.61679 434.847 -54.3681 2.61679 434.847
2013 1 -48.9999 1.87971 434.823 -48.9999 1.87971 434.823
2288 1 -57.4559 4.08243 435.347 -57.4559 4.08243 435.347
2037 1 -36.6508 0.44957 432.831 -36.6508 0.44957 432.831
1739 1 -41.7351 4.27738 426.033 -41.7351 4.27738 426.033
1753 1 -33.4181 0.528842 428.93 -33.4181 0.528842 428.93
2307 1 -46.7195 2.60824 435.301 -46.7195 2.60824 435.301
2314 1 -42.1597 4.0662 436.258 -42.1597 4.0662 436.258
2040 1 -35.0348 0.489517 430.88 -35.0348 0.489517 430.88
2320 1 -39.0731 2.60231 435.76 -39.0731 2.60231 435.76
2292 1 -55.1744 0.382355 435.824 -55.1744 0.382355 435.824
2311 1 -44.4395 3.3371 435.779 -44.4395 3.3371 435.779
2302 1 -49.8063 4.07266 435.801 -49.8063 4.07266 435.801
2296 1 -52.8933 1.11005 436.301 -52.8933 1.11005 436.301
1463 1 -35.4131 2.8894 421.635 -35.4131 2.8894 421.635
2287 1 -57.5928 2.53418 438.756 -57.5928 2.53418 438.756
2291 1 -55.3113 3.26165 439.233 -55.3113 3.26165 439.233
2317 1 -40.6867 2.56108 437.713 -40.6867 2.56108 437.713
2038 1 -35.8429 2.68335 431.856 -35.8429 2.68335 431.856
2305 1 -47.5259 0.373725 436.278 -47.5259 0.373725 436.278
2332 1 -32.2343 0.36266 437.2 -32.2343 0.36266 437.2
1709 1 -58.6533 4.25972 427.077 -58.6533 4.25972 427.077
1468 1 -32.3224 1.42184 421.142 -32.3224 1.42184 421.142
1454 1 -40.1194 4.31712 424.081 -40.1194 4.31712 424.081
1429 1 -53.8109 4.38263 421.215 -53.8109 4.38263 421.215
1133 1 -58.3746 2.92989 420.261 -58.3746 2.92989 420.261
1175 1 -33.7967 2.92764 419.685 -33.7967 2.92764 419.685
2616 1 -34.7966 0.968995 443.538 -34.7966 0.968995 443.538
2901 1 -36.4073 0.927242 445.492 -36.4073 0.927242 445.492
2907 1 -33.3243 3.89162 444.994 -33.3243 3.89162 444.994
3194 1 -34.2657 0.110143 449.384 -34.2657 0.110143 449.384
2587 1 -50.7496 0.290424 440.187 -50.7496 0.290424 440.187
2597 1 -45.3843 3.98301 440.166 -45.3843 3.98301 440.166
2584 1 -52.3603 0.248915 442.142 -52.3603 0.248915 442.142
2581 1 -53.9703 0.20768 444.097 -53.9703 0.20768 444.097
2868 1 -55.5797 0.166852 446.052 -55.5797 0.166852 446.052
2865 1 -57.1886 0.126565 448.006 -57.1886 0.126565 448.006
2601 1 -43.1051 0.284974 440.645 -43.1051 0.284974 440.645
2598 1 -44.7159 0.243262 442.599 -44.7159 0.243262 442.599
2885 1 -46.3257 0.201628 444.554 -46.3257 0.201628 444.554
2882 1 -47.9344 0.160213 446.51 -47.9344 0.160213 446.51
2879 1 -49.5422 0.119149 448.465 -49.5422 0.119149 448.465
2612 1 -37.0747 0.239259 443.059 -37.0747 0.239259 443.059
2898 1 -38.6852 0.197517 445.013 -38.6852 0.197517 445.013
2895 1 -40.2943 0.155813 446.969 -40.2943 0.155813 446.969
3180 1 -41.902 0.114323 448.924 -41.902 0.114323 448.924
2576 1 -56.9226 3.22053 441.188 -56.9226 3.22053 441.188
2574 1 -58.5334 3.17977 443.142 -58.5334 3.17977 443.142
2589 1 -49.2748 3.21213 441.643 -49.2748 3.21213 441.643
2586 1 -50.8849 3.17059 443.597 -50.8849 3.17059 443.597
2874 1 -52.4941 3.12934 445.552 -52.4941 3.12934 445.552
2871 1 -54.1027 3.08849 447.507 -54.1027 3.08849 447.507
3155 1 -55.7108 3.04819 449.462 -55.7108 3.04819 449.462
2607 1 -40.0202 3.24905 440.146 -40.0202 3.24905 440.146
2604 1 -41.6317 3.20739 442.101 -41.6317 3.20739 442.101
2600 1 -43.242 3.16569 444.056 -43.242 3.16569 444.056
2887 1 -44.8512 3.12412 446.011 -44.8512 3.12412 446.011
2884 1 -46.4592 3.08282 447.966 -46.4592 3.08282 447.966
3168 1 -48.0663 3.04195 449.922 -48.0663 3.04195 449.922
2900 1 -37.212 3.12007 446.47 -37.212 3.12007 446.47
2897 1 -38.8204 3.07838 448.426 -38.8204 3.07838 448.426
2582 1 -53.8357 1.7551 440.687 -53.8357 1.7551 440.687
2579 1 -55.4464 1.71393 442.642 -55.4464 1.71393 442.642
2866 1 -57.0566 1.67314 444.597 -57.0566 1.67314 444.597
2578 1 -56.117 1.02732 440.21 -56.117 1.02732 440.21
2595 1 -46.1899 1.74842 441.143 -46.1899 1.74842 441.143
2592 1 -47.8002 1.70674 443.098 -47.8002 1.70674 443.098
2880 1 -49.4096 1.66524 445.053 -49.4096 1.66524 445.053
2877 1 -51.0181 1.62403 447.008 -51.0181 1.62403 447.008
2873 1 -52.6259 1.58325 448.963 -52.6259 1.58325 448.963
2609 1 -38.5474 1.74413 441.602 -38.5474 1.74413 441.602
2606 1 -40.1584 1.70243 443.557 -40.1584 1.70243 443.557
2892 1 -41.7682 1.66073 445.512 -41.7682 1.66073 445.512
2890 1 -43.3766 1.6192 447.468 -43.3766 1.6192 447.468
3174 1 -44.984 1.57801 449.423 -44.984 1.57801 449.423
2618 1 -33.9906 3.20352 442.561 -33.9906 3.20352 442.561
2585 1 -51.555 2.48337 441.165 -51.555 2.48337 441.165
2583 1 -53.1653 2.44198 443.12 -53.1653 2.44198 443.12
2870 1 -54.775 2.40093 445.074 -54.775 2.40093 445.074
2867 1 -56.3842 2.36036 447.029 -56.3842 2.36036 447.029
2863 1 -57.9929 2.32039 448.983 -57.9929 2.32039 448.983
2599 1 -43.9106 2.47784 441.622 -43.9106 2.47784 441.622
2596 1 -45.5209 2.43615 443.577 -45.5209 2.43615 443.577
2883 1 -47.1302 2.39461 445.532 -47.1302 2.39461 445.532
2881 1 -48.7384 2.35336 447.487 -48.7384 2.35336 447.487
3164 1 -50.3458 2.31252 449.443 -50.3458 2.31252 449.443
2610 1 -37.8801 2.43212 444.036 -37.8801 2.43212 444.036
2896 1 -39.4899 2.39038 445.991 -39.4899 2.39038 445.991
2893 1 -41.0983 2.34876 447.947 -41.0983 2.34876 447.947
3178 1 -42.7054 2.30743 449.902 -42.7054 2.30743 449.902
2575 1 -57.728 0.986371 442.165 -57.728 0.986371 442.165
2591 1 -48.4695 1.01924 440.665 -48.4695 1.01924 440.665
2588 1 -50.0799 0.977609 442.62 -50.0799 0.977609 442.62
2876 1 -51.6896 0.936194 444.575 -51.6896 0.936194 444.575
2872 1 -53.2985 0.895126 446.53 -53.2985 0.895126 446.53
2869 1 -54.9068 0.854537 448.484 -54.9068 0.854537 448.484
2605 1 -40.8261 1.01451 441.123 -40.8261 1.01451 441.123
2602 1 -42.437 0.972809 443.078 -42.437 0.972809 443.078
2889 1 -44.0467 0.931152 445.033 -44.0467 0.931152 445.033
2886 1 -45.6553 0.889699 446.989 -45.6553 0.889699 446.989
3170 1 -47.2629 0.848597 448.944 -47.2629 0.848597 448.944
2899 1 -38.0164 0.885478 447.448 -38.0164 0.885478 447.448
3184 1 -39.624 0.843903 449.404 -39.624 0.843903 449.404
2580 1 -54.6412 3.9482 441.665 -54.6412 3.9482 441.665
2577 1 -56.2516 3.9072 443.619 -56.2516 3.9072 443.619
2864 1 -57.8615 3.86666 445.574 -57.8615 3.86666 445.574
2862 1 -58.6663 1.63287 446.551 -58.6663 1.63287 446.551
2594 1 -46.9951 3.9413 442.121 -46.9951 3.9413 442.121
2590 1 -48.605 3.89969 444.076 -48.605 3.89969 444.076
2878 1 -50.214 3.85831 446.031 -50.214 3.85831 446.031
2875 1 -51.8221 3.81731 447.986 -51.8221 3.81731 447.986
3159 1 -53.4295 3.77679 449.94 -53.4295 3.77679 449.94
2611 1 -37.7414 3.97864 440.625 -37.7414 3.97864 440.625
2608 1 -39.3531 3.93702 442.58 -39.3531 3.93702 442.58
2894 1 -40.9635 3.8953 444.534 -40.9635 3.8953 444.534
2891 1 -42.5725 3.85366 446.49 -42.5725 3.85366 446.49
2888 1 -44.1804 3.81228 448.445 -44.1804 3.81228 448.445
2904 1 -34.9345 3.84979 446.949 -34.9345 3.84979 446.949
2621 1 -32.3774 3.24481 440.608 -32.3774 3.24481 440.608
2617 1 -34.6561 2.51522 440.128 -34.6561 2.51522 440.128
2614 1 -36.2689 2.47381 442.082 -36.2689 2.47381 442.082
2908 1 -32.6572 0.152058 447.428 -32.6572 0.152058 447.428
2619 1 -33.1842 1.0105 441.584 -33.1842 1.0105 441.584
2906 1 -33.4616 2.34481 448.406 -33.4616 2.34481 448.406
2905 1 -34.1296 1.65699 445.972 -34.1296 1.65699 445.972
2620 1 -32.5186 1.69876 444.017 -32.5186 1.69876 444.017
3190 1 -36.5429 3.80801 448.905 -36.5429 3.80801 448.905
2902 1 -35.7389 1.61515 447.927 -35.7389 1.61515 447.927
2903 1 -35.6021 3.16186 444.515 -35.6021 3.16186 444.515
2615 1 -35.4627 0.280833 441.105 -35.4627 0.280833 441.105
2909 1 -31.8522 2.38676 446.451 -31.8522 2.38676 446.451
14 1 -51.4665 0.425271 398.926 -51.4665 4.85272 398.926
7 1 -55.8898 3.37946 398.103 -55.8898 3.37946 398.103
25 1 -43.7534 0.424881 399.307 -43.7534 4.85233 399.307
38 1 -36.0286 0.345867 399.706 -36.0286 4.77332 399.706
23 1 -45.3559 0.368551 401.248 -45.3559 4.796 401.248
287 1 -48.5659 0.28294 405.134 -48.5659 4.71039 405.134
878 1 -39.6971 0.0976975 413.859 -39.6971 4.52515 413.859
579 1 -45.7403 0.152684 411.447 -45.7403 4.58014 411.447
585 1 -42.5146 0.228957 407.54 -42.5146 4.65641 407.54
290 1 -46.962 0.324918 403.186 -46.962 4.75237 403.186
11 1 -53.0125 0.362576 400.824 -53.0125 4.79003 400.824
595 1 -36.4681 0.173467 409.956 -36.4681 4.60092 409.956
1134 1 -58.2358 0.050809 416.854 -58.2358 4.47826 416.854
283 1 -50.1735 0.243648 407.085 -50.1735 4.6711 407.085
582 1 -44.1273 0.19111 409.494 -44.1273 4.61856 409.494
276 1 -54.6234 0.341135 402.734 -54.6234 4.76859 402.734
569 1 -51.7833 0.205532 409.038 -51.7833 4.63298 409.038
847 1 -56.622 0.0902361 414.9 -56.622 4.51769 414.9
272 1 -56.2188 0.304838 404.681 -56.2188 4.73229 404.681
3 1 -57.6801 3.38247 399.839 -57.6801 3.38247 399.839
35 1 -37.6628 0.330309 401.67 -37.6628 4.75776 401.67
598 1 -34.853 0.210221 408.006 -34.853 4.63767 408.006
850 1 -55.0083 0.128803 412.946 -55.0083 4.55626 412.946
304 1 -39.2862 0.302563 403.631 -39.2862 4.73002 403.631
301 1 -40.9014 0.266247 405.586 -40.9014 4.6937 405.586
269 1 -57.8258 0.265858 406.637 -57.8258 4.69331 406.637
314 1 -33.2367 0.246075 406.057 -33.2367 4.67353 406.057