ITEM: TIMESTEP
0
ITEM: NUMBER OF ATOMS
4630
ITEM: BOX BOUNDS xy xz yz pp pp pp
-5.6740988501799997e+01 9.9760020350000005e+01 0.0000000000000000e+00
0.0000000000000000e+00 4.4274527100805940e+00 0.0000000000000000e+00
3.8000000000000000e+02 5.0000000000000000e+02 0.0000000000000000e+00
ITEM: ATOMS id type x y z xu yu zu
27 1 -42.2471 2.71225 398.22 -42.2471 2.71225 398.22
36 1 -36.8471 1.96166 397.989 -36.8471 1.96166 397.989
31 1 -39.8661 3.37743 398.531 -39.8661 3.37743 398.531
22 1 -45.2928 4.13581 398.802 -45.2928 4.13581 398.802
20 1 -46.0329 1.92236 399.726 -46.0329 1.92236 399.726
40 1 -34.4688 2.63006 398.307 -34.4688 2.63006 398.307
34 1 -37.5724 4.16393 398.902 -37.5724 4.16393 398.902
17 1 -48.3317 1.15554 399.367 -48.3317 1.15554 399.367
9 1 -53.6722 1.83037 399.571 -53.6722 1.83037 399.571
43 1 -32.1769 3.41743 398.682 -32.1769 3.41743 398.682
12 1 -51.4187 2.68968 399.974 -51.4187 2.68968 399.974
5 1 -56.0467 1.21892 399.259 -56.0467 1.21892 399.259
29 1 -40.6423 1.15401 399.451 -40.6423 1.15401 399.451
853 1 -52.1908 3.09272 414.601 -52.1908 3.09272 414.601
873 1 -41.4524 1.61603 414.122 -41.4524 1.61603 414.122
865 1 -45.2958 0.846649 415.753 -45.2958 0.846649 415.753
1174 1 -33.0211 2.28696 416.68 -33.0211 2.28696 416.68
883 1 -36.0784 0.875568 413.889 -36.0784 0.875568 413.889
863 1 -46.8234 2.3555 414.361 -46.8234 2.3555 414.361
315 1 -32.1898 1.84448 402.053 -32.1898 1.84448 402.053
307 1 -36.8176 3.28408 404.674 -36.8176 3.28408 404.674
1150 1 -46.84 0.802647 417.769 -46.84 0.802647 417.769
855 1 -50.6646 1.58414 415.993 -50.6646 1.58414 415.993
310 1 -35.2745 3.32053 402.667 -35.2745 3.32053 402.667
871 1 -42.2242 3.80853 415.13 -42.2242 3.80853 415.13
16 1 -49.0913 3.36111 400.294 -49.0913 3.36111 400.294
309 1 -35.2821 1.77572 406.067 -35.2821 1.77572 406.067
1156 1 -43.7686 3.7654 417.145 -43.7686 3.7654 417.145
867 1 -44.524 3.08205 414.745 -44.524 3.08205 414.745
1159 1 -41.4691 0.0649101 417.53 -41.4691 4.49236 417.53
1168 1 -36.0957 3.75363 417.297 -36.0957 3.75363 417.297
1170 1 -35.3225 1.56068 416.291 -35.3225 1.56068 416.291
594 1 -36.0536 3.97089 407.073 -36.0536 3.97089 407.073
37 1 -36.0311 2.61981 400.274 -36.0311 2.61981 400.274
851 1 -52.9619 0.856707 415.609 -52.9619 0.856707 415.609
857 1 -49.8932 3.82015 414.985 -49.8932 3.82015 414.985
592 1 -36.8248 1.73797 408.079 -36.8248 1.73797 408.079
849 1 -53.7335 3.04792 416.618 -53.7335 3.04792 416.618
877 1 -39.1518 2.3424 414.508 -39.1518 2.3424 414.508
1143 1 -51.4363 3.7754 417.002 -51.4363 3.7754 417.002
1140 1 -52.9806 3.72986 419.019 -52.9806 3.72986 419.019
845 1 -56.0302 2.32086 416.234 -56.0302 2.32086 416.234
875 1 -39.9241 0.107638 415.516 -39.9241 4.53509 415.516
886 1 -34.5337 0.915878 411.877 -34.5337 0.915878 411.877
891 1 -31.4578 3.87439 411.262 -31.4578 3.87439 411.262
39 1 -34.5076 1.12291 401.66 -34.5076 1.12291 401.66
1177 1 -31.4932 0.779088 418.075 -31.4932 0.779088 418.075
1167 1 -36.8691 1.5189 418.304 -36.8691 1.5189 418.304
8 1 -54.4703 4.10205 400.609 -54.4703 4.10205 400.609
869 1 -42.9963 1.57335 416.138 -42.9963 1.57335 416.138
1136 1 -55.2775 3.00215 418.635 -55.2775 3.00215 418.635
1162 1 -39.9425 2.98418 418.924 -39.9425 2.98418 418.924
15 1 -49.8696 1.14296 401.345 -49.8696 1.14296 401.345
280 1 -51.4001 1.1117 403.361 -51.4001 1.1117 403.361
277 1 -52.935 1.08383 405.375 -52.935 1.08383 405.375
273 1 -54.466 1.04276 407.396 -54.466 1.04276 407.396
560 1 -56.0027 1.00193 409.415 -56.0027 1.00193 409.415
26 1 -42.191 1.14049 401.479 -42.191 1.14049 401.479
294 1 -43.7318 1.11003 403.509 -43.7318 1.11003 403.509
291 1 -45.269 1.07153 405.527 -45.269 1.07153 405.527
576 1 -46.8047 1.02996 407.543 -46.8047 1.02996 407.543
573 1 -48.3415 0.987943 409.559 -48.3415 0.987943 409.559
570 1 -49.8797 0.944833 411.575 -49.8797 0.944833 411.575
854 1 -51.42 0.901069 413.592 -51.42 0.901069 413.592
305 1 -37.5878 1.05171 405.678 -37.5878 1.05171 405.678
589 1 -39.1284 1.01291 407.691 -39.1284 1.01291 407.691
586 1 -40.6691 0.972946 409.706 -40.6691 0.972946 409.706
872 1 -42.2104 0.931868 411.721 -42.2104 0.931868 411.721
599 1 -32.989 0.954934 409.866 -32.989 0.954934 409.866
4 1 -56.011 4.11289 402.573 -56.011 4.11289 402.573
1152 1 -46.0678 3.03848 416.761 -46.0678 3.03848 416.761
19 1 -46.8123 4.10847 400.746 -46.8123 4.10847 400.746
286 1 -48.3411 4.07043 402.727 -48.3411 4.07043 402.727
282 1 -49.8673 4.03416 404.748 -49.8673 4.03416 404.748
279 1 -51.4014 3.99977 406.766 -51.4014 3.99977 406.766
565 1 -52.936 3.95971 408.787 -52.936 3.95971 408.787
563 1 -54.474 3.91832 410.806 -54.474 3.91832 410.806
846 1 -56.0141 3.87566 412.824 -56.0141 3.87566 412.824
32 1 -39.1211 4.10552 400.891 -39.1211 4.10552 400.891
300 1 -40.6607 4.06836 402.894 -40.6607 4.06836 402.894
297 1 -42.1975 4.02966 404.906 -42.1975 4.02966 404.906
293 1 -43.7347 3.99051 406.92 -43.7347 3.99051 406.92
578 1 -45.2724 3.94957 408.936 -45.2724 3.94957 408.936
575 1 -46.8113 3.90746 410.952 -46.8113 3.90746 410.952
860 1 -48.3515 3.86422 412.969 -48.3515 3.86422 412.969
591 1 -37.596 3.93211 409.086 -37.596 3.93211 409.086
588 1 -39.1381 3.89199 411.1 -39.1381 3.89199 411.1
874 1 -40.6807 3.85075 413.115 -40.6807 3.85075 413.115
10 1 -52.9425 2.61542 401.975 -52.9425 2.61542 401.975
274 1 -54.4743 2.60016 403.979 -54.4743 2.60016 403.979
271 1 -55.997 2.55453 406.006 -55.997 2.55453 406.006
24 1 -43.7521 2.66587 400.154 -43.7521 2.66587 400.154
21 1 -45.281 2.62013 402.129 -45.281 2.62013 402.129
288 1 -46.8073 2.57925 404.137 -46.8073 2.57925 404.137
285 1 -48.3375 2.53555 406.15 -48.3375 2.53555 406.15
571 1 -49.8718 2.49455 408.165 -49.8718 2.49455 408.165
568 1 -51.4079 2.45223 410.182 -51.4079 2.45223 410.182
852 1 -52.9468 2.40933 412.199 -52.9468 2.40933 412.199
848 1 -54.4878 2.36574 414.217 -54.4878 2.36574 414.217
306 1 -37.5808 2.5923 402.273 -37.5808 2.5923 402.273
302 1 -39.1228 2.55842 404.282 -39.1228 2.55842 404.282
299 1 -40.6618 2.52059 406.296 -40.6618 2.52059 406.296
583 1 -42.2011 2.48137 408.312 -42.2011 2.48137 408.312
581 1 -43.7408 2.44061 410.328 -43.7408 2.44061 410.328
866 1 -45.2816 2.39862 412.344 -45.2816 2.39862 412.344
880 1 -37.6079 2.38375 412.495 -37.6079 2.38375 412.495
312 1 -33.7378 1.81158 404.057 -33.7378 1.81158 404.057
13 1 -50.6276 3.3368 402.332 -50.6276 3.3368 402.332
278 1 -52.1672 3.31259 404.359 -52.1672 3.31259 404.359
275 1 -53.6992 3.27725 406.383 -53.6992 3.27725 406.383
562 1 -55.2336 3.23601 408.405 -55.2336 3.23601 408.405
1166 1 -37.6426 3.7114 419.31 -37.6426 3.7114 419.31
889 1 -32.2307 1.64124 412.267 -32.2307 1.64124 412.267
28 1 -41.4239 3.37022 400.501 -41.4239 3.37022 400.501
296 1 -42.9652 3.34044 402.506 -42.9652 3.34044 402.506
292 1 -44.5017 3.30499 404.52 -44.5017 3.30499 404.52
289 1 -46.0368 3.26473 406.535 -46.0368 3.26473 406.535
574 1 -47.5729 3.22286 408.551 -47.5729 3.22286 408.551
572 1 -49.1104 3.18028 410.567 -49.1104 3.18028 410.567
856 1 -50.6496 3.13675 412.584 -50.6496 3.13675 412.584
303 1 -38.3585 3.24611 406.685 -38.3585 3.24611 406.685
587 1 -39.8988 3.20675 408.698 -39.8988 3.20675 408.698
584 1 -41.4397 3.16625 410.713 -41.4397 3.16625 410.713
870 1 -42.9813 3.12466 412.729 -42.9813 3.12466 412.729
6 1 -55.2488 1.911 401.555 -55.2488 1.911 401.555
890 1 -31.4741 2.32721 414.669 -31.4741 2.32721 414.669
18 1 -47.5729 1.8763 401.728 -47.5729 1.8763 401.728
284 1 -49.1009 1.83945 403.742 -49.1009 1.83945 403.742
281 1 -50.6343 1.80442 405.759 -50.6343 1.80442 405.759
567 1 -52.1684 1.76663 407.778 -52.1684 1.76663 407.778
564 1 -53.7047 1.72539 409.797 -53.7047 1.72539 409.797
561 1 -55.244 1.68352 411.815 -55.244 1.68352 411.815
33 1 -38.3613 1.91196 399.918 -38.3613 1.91196 399.918
30 1 -39.8985 1.8709 401.884 -39.8985 1.8709 401.884
298 1 -41.4297 1.83451 403.896 -41.4297 1.83451 403.896
295 1 -42.9661 1.79648 405.912 -42.9661 1.79648 405.912
580 1 -44.5034 1.75645 407.928 -44.5034 1.75645 407.928
577 1 -46.0417 1.71489 409.944 -46.0417 1.71489 409.944
862 1 -47.5812 1.67223 411.96 -47.5812 1.67223 411.96
590 1 -38.367 1.69848 410.093 -38.367 1.69848 410.093
876 1 -39.9093 1.65778 412.107 -39.9093 1.65778 412.107
1163 1 -39.1693 0.791921 417.916 -39.1693 0.791921 417.916
1153 1 -45.3139 3.72141 419.161 -45.3139 3.72141 419.161
311 1 -34.5095 4.00783 405.062 -34.5095 4.00783 405.062
42 1 -32.9643 1.16555 399.698 -32.9643 1.16555 399.698
1135 1 -56.0499 0.7652 419.644 -56.0499 0.7652 419.644
1171 1 -34.5684 2.24574 418.692 -34.5684 2.24574 418.692
1139 1 -53.7532 1.49307 420.027 -53.7532 1.49307 420.027
601 1 -32.2164 3.18765 408.86 -32.2164 3.18765 408.86
313 1 -32.9619 4.0433 403.051 -32.9619 4.0433 403.051
858 1 -49.1221 1.62854 413.977 -49.1221 1.62854 413.977
868 1 -43.7525 0.889754 413.737 -43.7525 0.889754 413.737
1147 1 -49.1384 0.0754064 417.386 -49.1384 4.50286 417.386
593 1 -36.0645 2.42403 410.481 -36.0645 2.42403 410.481
308 1 -36.0463 1.08807 403.667 -36.0463 1.08807 403.667
861 1 -47.5948 0.119852 415.369 -47.5948 4.54731 415.369
1158 1 -42.242 2.25695 418.538 -42.242 2.25695 418.538
884 1 -35.306 3.10959 412.883 -35.306 3.10959 412.883
881 1 -36.8509 3.06874 414.896 -36.8509 3.06874 414.896
885 1 -34.5495 3.79494 415.284 -34.5495 3.79494 415.284
859 1 -48.3665 2.31145 416.377 -48.3665 2.31145 416.377
596 1 -34.521 2.463 408.47 -34.521 2.463 408.47
879 1 -37.6235 0.834206 415.903 -37.6235 0.834206 415.903
1172 1 -33.7947 0.0527388 417.686 -33.7947 4.48019 417.686
1154 1 -44.5412 1.52978 418.153 -44.5412 1.52978 418.153
887 1 -33.7765 1.6015 414.278 -33.7765 1.6015 414.278
597 1 -33.7614 3.1493 410.871 -33.7614 3.1493 410.871
1161 1 -40.6965 2.30011 416.523 -40.6965 2.30011 416.523
1138 1 -54.5053 0.811426 417.627 -54.5053 0.811426 417.627
1149 1 -47.6125 2.99406 418.777 -47.6125 2.99406 418.777
41 1 -33.7285 3.35731 400.67 -33.7285 3.35731 400.67
888 1 -33.0036 3.83525 413.273 -33.0036 3.83525 413.273
1165 1 -38.3963 3.0269 416.909 -38.3963 3.0269 416.909
1141 1 -52.2083 1.53901 418.01 -52.2083 1.53901 418.01
1145 1 -49.9107 2.26662 418.394 -49.9107 2.26662 418.394
600 1 -32.9769 2.50046 406.46 -32.9769 2.50046 406.46
1148 1 -48.3853 0.75783 419.786 -48.3853 0.75783 419.786
882 1 -36.8362 0.190305 411.488 -36.8362 4.61776 411.488
1157 1 -43.015 0.0213412 419.546 -43.015 4.44879 419.546
1144 1 -50.6832 0.0301797 419.402 -50.6832 4.45763 419.402
602 1 -31.4435 0.992517 407.856 -31.4435 0.992517 407.856
1755 1 -30.7908 2.79449 427.286 -30.7908 2.79449 427.286
1460 1 -35.365 2.88848 423.104 -35.365 2.88848 423.104
2308 1 -43.9104 3.3007 437.59 -43.9104 3.3007 437.59
2316 1 -39.2919 1.88797 434.95 -39.2919 1.88797 434.95
2312 1 -41.614 4.03148 437.974 -41.614 4.03148 437.974
1464 1 -33.0649 3.61608 423.492 -33.0649 3.61608 423.492
1461 1 -34.5904 0.696042 422.098 -34.5904 0.696042 422.098
2039 1 -33.147 3.39373 433.708 -33.147 3.39373 433.708
2613 1 -34.7256 1.797 439.128 -34.7256 1.797 439.128
1467 1 -30.7644 4.34342 423.881 -30.7644 4.34342 423.881
2603 1 -40.0913 2.52512 439.366 -40.0913 2.52512 439.366
1443 1 -44.5617 4.40442 421.561 -44.5617 4.40442 421.561
1748 1 -34.6149 3.57348 425.504 -34.6149 3.57348 425.504
2023 1 -41.5888 1.15752 434.566 -41.5888 1.15752 434.566
2310 1 -42.3874 1.79411 438.982 -42.3874 1.79411 438.982
1151 1 -46.0869 1.48539 420.169 -46.0869 1.48539 420.169
2303 1 -46.9804 0.332812 438.214 -46.9804 0.332812 438.214
2299 1 -49.2775 4.0302 437.831 -49.2775 4.0302 437.831
2033 1 -36.22 0.427568 434.328 -36.22 0.427568 434.328
1433 1 -49.9314 0.712246 421.802 -49.9314 0.712246 421.802
1430 1 -51.4783 0.665997 423.818 -51.4783 0.665997 423.818
1426 1 -53.0258 0.619267 425.835 -53.0258 0.619267 425.835
1713 1 -54.574 0.572293 427.851 -54.574 0.572293 427.851
1710 1 -56.1227 0.525318 429.867 -56.1227 0.525318 429.867
2330 1 -30.8789 2.57324 437.5 -30.8789 2.57324 437.5
1160 1 -40.7158 0.748786 419.931 -40.7158 0.748786 419.931
1447 1 -42.2629 0.704843 421.946 -42.2629 0.704843 421.946
1444 1 -43.8106 0.660121 423.961 -43.8106 0.660121 423.961
1730 1 -45.3587 0.614666 425.976 -45.3587 0.614666 425.976
1727 1 -46.907 0.568564 427.992 -46.907 0.568564 427.992
1724 1 -48.4554 0.52196 430.008 -48.4554 0.52196 430.008
2008 1 -50.0037 0.475041 432.024 -50.0037 0.475041 432.024
2006 1 -51.5518 0.42802 434.04 -51.5518 0.42802 434.04
1458 1 -36.1396 0.653247 424.111 -36.1396 0.653247 424.111
1743 1 -37.6891 0.609612 426.124 -37.6891 0.609612 426.124
1740 1 -39.2387 0.565139 428.137 -39.2387 0.565139 428.137
2026 1 -40.7882 0.519854 430.151 -40.7882 0.519854 430.151
2022 1 -42.3373 0.473827 432.166 -42.3373 0.473827 432.166
2019 1 -43.8858 0.427186 434.182 -43.8858 0.427186 434.182
2309 1 -43.1368 1.11059 436.582 -43.1368 1.11059 436.582
1137 1 -54.5261 3.68356 421.036 -54.5261 3.68356 421.036
1421 1 -56.0726 3.6367 423.052 -56.0726 3.6367 423.052
1439 1 -46.8601 3.67663 421.177 -46.8601 3.67663 421.177
1435 1 -48.407 3.6311 423.193 -48.407 3.6311 423.193
1432 1 -49.9544 3.58491 425.21 -49.9544 3.58491 425.21
1719 1 -51.5023 3.53825 427.226 -51.5023 3.53825 427.226
1716 1 -53.0506 3.49132 429.242 -53.0506 3.49132 429.242
2001 1 -54.5992 3.44436 431.258 -54.5992 3.44436 431.258
1998 1 -56.1478 3.39759 433.274 -56.1478 3.39759 433.274
2323 1 -34.6978 3.34886 435.721 -34.6978 3.34886 435.721
1453 1 -39.19 3.66834 421.324 -39.19 3.66834 421.324
1450 1 -40.738 3.62446 423.338 -40.738 3.62446 423.338
1446 1 -42.2863 3.57979 425.353 -42.2863 3.57979 425.353
1732 1 -43.8349 3.53438 427.368 -43.8349 3.53438 427.368
1729 1 -45.3836 3.4883 429.383 -45.3836 3.4883 429.383
2014 1 -46.932 3.44169 431.399 -46.932 3.44169 431.399
2011 1 -48.4802 3.39473 433.415 -48.4802 3.39473 433.415
1745 1 -36.1651 3.53002 427.517 -36.1651 3.53002 427.517
1742 1 -37.7153 3.48568 429.53 -37.7153 3.48568 429.53
2028 1 -39.2652 3.44049 431.544 -39.2652 3.44049 431.544
2025 1 -40.8144 3.3945 433.558 -40.8144 3.3945 433.558
1427 1 -53.0022 2.1747 422.427 -53.0022 2.1747 422.427
1424 1 -54.5493 2.1279 424.444 -54.5493 2.1279 424.444
1711 1 -56.0972 2.08086 426.46 -56.0972 2.08086 426.46
2322 1 -35.4728 1.11231 436.728 -35.4728 1.11231 436.728
1750 1 -33.0906 2.06645 426.898 -33.0906 2.06645 426.898
1155 1 -43.7883 2.21298 420.553 -43.7883 2.21298 420.553
1441 1 -45.3352 2.16822 422.569 -45.3352 2.16822 422.569
1438 1 -46.8827 2.12273 424.585 -46.8827 2.12273 424.585
1725 1 -48.4306 2.0766 426.601 -48.4306 2.0766 426.601
1722 1 -49.9788 2.02998 428.617 -49.9788 2.02998 428.617
1718 1 -51.5272 1.98307 430.633 -51.5272 1.98307 430.633
2003 1 -53.0755 1.9361 432.649 -53.0755 1.9361 432.649
2000 1 -54.6237 1.88927 434.665 -54.6237 1.88927 434.665
1459 1 -36.1163 2.20363 420.704 -36.1163 2.20363 420.704
1455 1 -37.6646 2.16068 422.717 -37.6646 2.16068 422.717
1452 1 -39.2134 2.1169 424.731 -39.2134 2.1169 424.731
1737 1 -40.7624 2.07232 426.745 -40.7624 2.07232 426.745
1735 1 -42.3114 2.02696 428.76 -42.3114 2.02696 428.76
2020 1 -43.8603 1.9809 430.775 -43.8603 1.9809 430.775
2017 1 -45.4088 1.93428 432.79 -45.4088 1.93428 432.79
2034 1 -36.1922 1.97901 430.922 -36.1922 1.97901 430.922
2031 1 -37.7424 1.93392 432.936 -37.7424 1.93392 432.936
2029 1 -38.5173 4.12477 433.943 -38.5173 4.12477 433.943
1146 1 -49.1582 2.94886 420.794 -49.1582 2.94886 420.794
1431 1 -50.7047 2.90292 422.81 -50.7047 2.90292 422.81
1428 1 -52.252 2.8564 424.827 -52.252 2.8564 424.827
1715 1 -53.7998 2.80952 426.843 -53.7998 2.80952 426.843
1712 1 -55.3483 2.76252 428.859 -55.3483 2.76252 428.859
1747 1 -34.6415 2.02318 428.91 -34.6415 2.02318 428.91
1449 1 -41.4893 2.94064 420.938 -41.4893 2.94064 420.938
1445 1 -43.0367 2.8963 422.953 -43.0367 2.8963 422.953
1442 1 -44.5846 2.85121 424.968 -44.5846 2.85121 424.968
1728 1 -46.1328 2.80541 426.984 -46.1328 2.80541 426.984
1726 1 -47.6812 2.75904 429 -47.6812 2.75904 429
2010 1 -49.2296 2.71225 431.016 -49.2296 2.71225 431.016
2007 1 -50.7778 2.66526 433.032 -50.7778 2.66526 433.032
1456 1 -36.9143 2.84526 425.117 -36.9143 2.84526 425.117
1741 1 -38.4639 2.80121 427.13 -38.4639 2.80121 427.13
1738 1 -40.0134 2.75632 429.144 -40.0134 2.75632 429.144
2024 1 -41.5628 2.71065 431.159 -41.5628 2.71065 431.159
2021 1 -43.1116 2.6643 433.174 -43.1116 2.6643 433.174
2035 1 -35.4448 2.66391 433.322 -35.4448 2.66391 433.322
1754 1 -31.5397 2.10882 424.887 -31.5397 2.10882 424.887
1423 1 -55.2992 1.44646 422.044 -55.2992 1.44646 422.044
2044 1 -30.0726 1.93127 433.09 -30.0726 1.93127 433.09
1437 1 -47.6334 1.44023 422.185 -47.6334 1.44023 422.185
1434 1 -49.1806 1.39435 424.201 -49.1806 1.39435 424.201
1721 1 -50.7283 1.3479 426.218 -50.7283 1.3479 426.218
1717 1 -52.2764 1.30108 428.234 -52.2764 1.30108 428.234
1714 1 -53.8249 1.25411 430.25 -53.8249 1.25411 430.25
1999 1 -55.3735 1.20721 432.266 -55.3735 1.20721 432.266
1164 1 -38.4162 1.47625 420.317 -38.4162 1.47625 420.317
1451 1 -39.9639 1.43277 422.331 -39.9639 1.43277 422.331
1448 1 -41.5121 1.38849 424.345 -41.5121 1.38849 424.345
1734 1 -43.0606 1.34345 426.36 -43.0606 1.34345 426.36
1731 1 -44.6093 1.29769 428.375 -44.6093 1.29769 428.375
2016 1 -46.1578 1.25132 430.391 -46.1578 1.25132 430.391
2012 1 -47.7062 1.20451 432.407 -47.7062 1.20451 432.407
2009 1 -49.2542 1.15746 434.423 -49.2542 1.15746 434.423
1746 1 -35.39 1.33813 426.51 -35.39 1.33813 426.51
1744 1 -36.9402 1.29423 428.523 -36.9402 1.29423 428.523
2030 1 -38.4903 1.24946 430.537 -38.4903 1.24946 430.537
2027 1 -40.0399 1.20386 432.551 -40.0399 1.20386 432.551
2325 1 -33.9225 1.1577 434.714 -33.9225 1.1577 434.714
1749 1 -33.8661 4.25865 427.904 -33.8661 4.25865 427.904
1425 1 -53.7756 4.36508 423.435 -53.7756 4.36508 423.435
1736 1 -41.5369 4.26346 427.752 -41.5369 4.26346 427.752
1142 1 -51.4559 2.22101 420.41 -51.4559 2.22101 420.41
1720 1 -50.753 4.22027 429.625 -50.753 4.22027 429.625
2005 1 -52.3014 4.17331 431.641 -52.3014 4.17331 431.641
2002 1 -53.8497 4.12638 433.657 -53.8497 4.12638 433.657
1169 1 -35.3423 0.0110649 419.698 -35.3423 4.43852 419.698
1723 1 -49.2047 4.26706 427.609 -49.2047 4.26706 427.609
1440 1 -46.1089 4.35929 423.577 -46.1089 4.35929 423.577
1733 1 -43.0859 4.21774 429.767 -43.0859 4.21774 429.767
2018 1 -44.6346 4.17138 431.782 -44.6346 4.17138 431.782
2015 1 -46.1829 4.12453 433.798 -46.1829 4.12453 433.798
2036 1 -35.4169 4.21494 429.916 -35.4169 4.21494 429.916
2032 1 -36.9674 4.1703 431.929 -36.9674 4.1703 431.929
2326 1 -33.176 1.84287 437.114 -33.176 1.84287 437.114
1752 1 -32.3152 4.30147 425.892 -32.3152 4.30147 425.892
1457 1 -36.8904 4.39598 421.711 -36.8904 4.39598 421.711
2043 1 -30.8192 1.24535 430.691 -30.8192 1.24535 430.691
2286 1 -56.1717 1.84278 436.681 -56.1717 1.84278 436.681
2319 1 -37.0216 1.06598 438.743 -37.0216 1.06598 438.743
1436 1 -47.6566 4.31346 425.593 -47.6566 4.31346 425.593
1422 1 -55.3232 4.31812 425.452 -55.3232 4.31812 425.452
1173 1 -33.0416 0.737997 420.086 -33.0416 0.737997 420.086
2293 1 -52.3485 1.06347 438.456 -52.3485 1.06347 438.456
2289 1 -54.6468 0.334517 438.072 -54.6468 0.334517 438.072
2295 1 -50.8237 3.98317 439.847 -50.8237 3.98317 439.847
1465 1 -32.29 1.42334 422.487 -32.29 1.42334 422.487
2315 1 -39.3177 0.334969 438.358 -39.3177 0.334969 438.358
2331 1 -30.8488 4.12332 434.095 -30.8488 4.12332 434.095
2297 1 -50.0507 1.79292 438.839 -50.0507 1.79292 438.839
2324 1 -33.951 4.03379 438.12 -33.951 4.03379 438.12
2306 1 -44.6837 1.0633 438.598 -44.6837 1.0633 438.598
2285 1 -56.1935 0.288411 440.088 -56.1935 0.288411 440.088
1462 1 -33.8399 1.38116 424.498 -33.8399 1.38116 424.498
1751 1 -32.3424 2.75191 429.297 -32.3424 2.75191 429.297
2329 1 -31.6248 1.88764 435.101 -31.6248 1.88764 435.101
2042 1 -31.5952 3.43755 431.696 -31.5952 3.43755 431.696
2041 1 -32.3712 1.20205 432.702 -32.3712 1.20205 432.702
2593 1 -45.4567 3.25331 439.606 -45.4567 3.25331 439.606
2328 1 -31.6544 0.33702 438.506 -31.6544 0.33702 438.506
2301 1 -47.7535 2.52288 439.223 -47.7535 2.52288 439.223
1466 1 -31.5152 3.65784 421.481 -31.5152 3.65784 421.481
2298 1 -50.028 3.34763 435.431 -50.028 3.34763 435.431
2321 1 -36.2474 3.30298 437.735 -36.2474 3.30298 437.735
2313 1 -40.8402 1.8413 436.966 -40.8402 1.8413 436.966
2294 1 -51.5752 3.30061 437.448 -51.5752 3.30061 437.448
2304 1 -46.2071 2.5702 437.206 -46.2071 2.5702 437.206
2300 1 -48.5042 1.84007 436.823 -48.5042 1.84007 436.823
2290 1 -53.8732 2.57149 437.064 -53.8732 2.57149 437.064
2318 1 -37.7695 0.381662 436.343 -37.7695 0.381662 436.343
2327 1 -32.4006 4.07912 436.107 -32.4006 4.07912 436.107
2004 1 -52.3257 2.61826 435.048 -52.3257 2.61826 435.048
2013 1 -46.9568 1.88726 434.806 -46.9568 1.88726 434.806
2288 1 -55.3978 4.0797 435.673 -55.3978 4.0797 435.673
2037 1 -34.6694 0.472549 432.315 -34.6694 0.472549 432.315
1739 1 -39.9879 4.30844 425.738 -39.9879 4.30844 425.738
1753 1 -31.5666 0.559589 428.292 -31.5666 0.559589 428.292
2307 1 -44.6598 2.61741 435.19 -44.6598 2.61741 435.19
2314 1 -40.0662 4.07844 435.958 -40.0662 4.07844 435.958
2040 1 -33.1182 0.516551 430.303 -33.1182 0.516551 430.303
2320 1 -36.9949 2.61845 435.335 -36.9949 2.61845 435.335
2292 1 -53.0995 0.381111 436.056 -53.0995 0.381111 436.056
2311 1 -42.3629 3.34784 435.574 -42.3629 3.34784 435.574
2302 1 -47.7306 4.0774 435.815 -47.7306 4.0774 435.815
2296 1 -50.8016 1.11037 436.439 -50.8016 1.11037 436.439
1463 1 -33.8159 2.93085 421.092 -33.8159 2.93085 421.092
2287 1 -55.4202 2.52512 439.08 -55.4202 2.52512 439.08
2291 1 -53.1217 3.25389 439.464 -53.1217 3.25389 439.464
2317 1 -38.5438 2.57213 437.35 -38.5438 2.57213 437.35
2038 1 -33.8939 2.7084 431.309 -33.8939 2.7084 431.309
2305 1 -45.4336 0.380108 436.198 -45.4336 0.380108 436.198
2332 1 -30.1031 0.381699 436.494 -30.1031 0.381699 436.494
1468 1 -30.7404 1.46469 420.476 -30.7404 1.46469 420.476
1454 1 -38.439 4.35262 423.724 -38.439 4.35262 423.724
1429 1 -52.2289 4.41166 421.419 -52.2289 4.41166 421.419
1133 1 -56.8228 2.95553 420.653 -56.8228 2.95553 420.653
1175 1 -32.2674 2.97238 419.081 -32.2674 2.97238 419.081
2616 1 -32.4566 0.975711 442.92 -32.4566 0.975711 442.92
2901 1 -34.0023 0.928243 444.937 -34.0023 0.928243 444.937
2907 1 -30.9355 3.8974 444.313 -30.9355 3.8974 444.313
3194 1 -31.7297 0.105764 448.732 -31.7297 0.105764 448.732
2587 1 -48.5262 0.285537 440.231 -48.5262 0.285537 440.231
2597 1 -43.1604 3.98411 439.99 -43.1604 3.98411 439.99
2584 1 -50.071 0.23853 442.248 -50.071 0.23853 442.248
2581 1 -51.6147 0.192028 444.264 -51.6147 0.192028 444.264
2868 1 -53.1574 0.146254 446.28 -53.1574 0.146254 446.28
2865 1 -54.6992 0.101409 448.296 -54.6992 0.101409 448.296
2601 1 -40.8645 0.287706 440.374 -40.8645 0.287706 440.374
2598 1 -42.4095 0.240148 442.391 -42.4095 0.240148 442.391
2885 1 -43.9528 0.192604 444.409 -43.9528 0.192604 444.409
2882 1 -45.4944 0.145389 446.427 -45.4944 0.145389 446.427
2879 1 -47.0344 0.0988063 448.444 -47.0344 0.0988063 448.444
2612 1 -34.7515 0.244239 442.536 -34.7515 0.244239 442.536
2898 1 -36.2965 0.196618 444.552 -36.2965 0.196618 444.552
2895 1 -37.839 0.14867 446.57 -37.839 0.14867 446.57
3180 1 -39.379 0.100816 448.589 -39.379 0.100816 448.589
2576 1 -54.6674 3.20766 441.48 -54.6674 3.20766 441.48
2574 1 -56.2125 3.1621 443.495 -56.2125 3.1621 443.495
2589 1 -47.0018 3.20593 441.623 -47.0018 3.20593 441.623
2586 1 -48.5455 3.15881 443.64 -48.5455 3.15881 443.64
2874 1 -50.088 3.11221 445.657 -50.088 3.11221 445.657
2871 1 -51.6294 3.06636 447.673 -51.6294 3.06636 447.673
3155 1 -53.1698 3.0215 449.689 -53.1698 3.0215 449.689
2607 1 -37.7955 3.25625 439.75 -37.7955 3.25625 439.75
2604 1 -39.3417 3.20889 441.767 -39.3417 3.20889 441.767
2600 1 -40.886 3.16123 443.784 -40.886 3.16123 443.784
2887 1 -42.4283 3.11361 445.802 -42.4283 3.11361 445.802
2884 1 -43.9687 3.06638 447.82 -43.9687 3.06638 447.82
3168 1 -45.5074 3.01988 449.839 -45.5074 3.01988 449.839
2900 1 -34.7741 3.118 445.945 -34.7741 3.118 445.945
2897 1 -36.3155 3.06989 447.964 -36.3155 3.06989 447.964
2582 1 -51.5964 1.74606 440.856 -51.5964 1.74606 440.856
2579 1 -53.1412 1.69969 442.872 -53.1412 1.69969 442.872
2866 1 -54.6851 1.65402 444.888 -54.6851 1.65402 444.888
2578 1 -53.8946 1.01698 440.472 -53.8946 1.01698 440.472
2595 1 -43.9331 1.74663 440.999 -43.9331 1.74663 440.999
2592 1 -45.4773 1.69916 443.016 -45.4773 1.69916 443.016
2880 1 -47.02 1.65197 445.033 -47.02 1.65197 445.033
2877 1 -48.5613 1.60534 447.05 -48.5613 1.60534 447.05
2873 1 -50.1013 1.55952 449.067 -50.1013 1.55952 449.067
2609 1 -36.2734 1.7502 441.143 -36.2734 1.7502 441.143
2606 1 -37.819 1.70272 443.159 -37.819 1.70272 443.159
2892 1 -39.3625 1.65493 445.177 -39.3625 1.65493 445.177
2890 1 -40.9037 1.6072 447.195 -40.9037 1.6072 447.195
3174 1 -42.4428 1.55992 449.214 -42.4428 1.55992 449.214
2618 1 -31.6828 3.21284 441.913 -31.6828 3.21284 441.913
2585 1 -49.2987 2.47571 441.239 -49.2987 2.47571 441.239
2583 1 -50.843 2.42893 443.256 -50.843 2.42893 443.256
2870 1 -52.3861 2.38276 445.272 -52.3861 2.38276 445.272
2867 1 -53.9284 2.33743 447.288 -53.9284 2.33743 447.288
2863 1 -55.4699 2.29312 449.304 -55.4699 2.29312 449.304
2599 1 -41.6372 2.47767 441.383 -41.6372 2.47767 441.383
2596 1 -43.1814 2.43008 443.4 -43.1814 2.43008 443.4
2883 1 -44.7238 2.38266 445.418 -44.7238 2.38266 445.418
2881 1 -46.2646 2.33573 447.435 -46.2646 2.33573 447.435
3164 1 -47.8039 2.28957 449.453 -47.8039 2.28957 449.453
2610 1 -35.5243 2.43422 443.544 -35.5243 2.43422 443.544
2896 1 -37.0681 2.38639 445.561 -37.0681 2.38639 445.561
2893 1 -38.6093 2.33843 447.58 -38.6093 2.33843 447.58
3178 1 -40.1481 2.29078 449.599 -40.1481 2.29078 449.599
2575 1 -55.4401 0.971061 442.488 -55.4401 0.971061 442.488
2591 1 -46.2294 1.01588 440.615 -46.2294 1.01588 440.615
2588 1 -47.7738 0.968592 442.632 -47.7738 0.968592 442.632
2876 1 -49.3169 0.9217 444.649 -49.3169 0.9217 444.649
2872 1 -50.8589 0.87545 446.665 -50.8589 0.87545 446.665
2869 1 -52.3997 0.83007 448.682 -52.3997 0.83007 448.682
2605 1 -38.5688 1.0189 440.758 -38.5688 1.0189 440.758
2602 1 -40.1141 0.971355 442.775 -40.1141 0.971355 442.775
2889 1 -41.6574 0.923668 444.793 -41.6574 0.923668 444.793
2886 1 -43.1987 0.876198 446.811 -43.1987 0.876198 446.811
3170 1 -44.7382 0.829291 448.829 -44.7382 0.829291 448.829
2899 1 -35.5451 0.880229 446.954 -35.5451 0.880229 446.954
3184 1 -37.0851 0.832138 448.973 -37.0851 0.832138 448.973
2580 1 -52.3689 3.93652 441.864 -52.3689 3.93652 441.864
2577 1 -53.9132 3.89048 443.88 -53.9132 3.89048 443.88
2864 1 -55.4568 3.84523 445.896 -55.4568 3.84523 445.896
2862 1 -56.2283 1.60923 446.903 -56.2283 1.60923 446.903
2594 1 -44.7054 3.9366 442.007 -44.7054 3.9366 442.007
2590 1 -46.2488 3.88924 444.024 -46.2488 3.88924 444.024
2878 1 -47.7908 3.8423 446.042 -47.7908 3.8423 446.042
2875 1 -49.3314 3.79604 448.059 -49.3314 3.79604 448.059
3159 1 -50.8709 3.75071 450.076 -50.8709 3.75071 450.076
2611 1 -35.4997 3.98743 440.135 -35.4997 3.98743 440.135
2608 1 -37.0465 3.94025 442.151 -37.0465 3.94025 442.151
2894 1 -38.591 3.89257 444.168 -38.591 3.89257 444.168
2891 1 -40.1334 3.84476 446.186 -40.1334 3.84476 446.186
2888 1 -41.6735 3.79721 448.205 -41.6735 3.79721 448.205
2904 1 -32.4805 3.84972 446.33 -32.4805 3.84972 446.33
2621 1 -30.1333 3.25876 439.899 -30.1333 3.25876 439.899
2617 1 -32.4295 2.52795 439.513 -32.4295 2.52795 439.513
2614 1 -33.978 2.48153 441.528 -33.978 2.48153 441.528
2908 1 -30.1873 0.154066 446.714 -30.1873 0.154066 446.714
2619 1 -30.9083 1.02223 440.906 -30.9083 1.02223 440.906
2906 1 -30.9589 2.34371 447.723 -30.9589 2.34371 447.723
2905 1 -31.7084 1.65993 445.321 -31.7084 1.65993 445.321
2620 1 -30.1619 1.70715 443.306 -30.1619 1.70715 443.306
3190 1 -34.0223 3.8015 448.348 -34.0223 3.8015 448.348
2902 1 -33.2518 1.61192 447.339 -33.2518 1.61192 447.339
2903 1 -33.2298 3.1658 443.928 -33.2298 3.1658 443.928
2615 1 -33.204 0.291141 440.52 -33.204 0.291141 440.52
2909 1 -29.4148 2.39167 445.706 -29.4148 2.39167 445.706
14 1 -50.7122 0.487423 399.056 -50.7122 4.91488 399.056
7 1 -55.1665 3.44109 398.409 -55.1665 3.44109 398.409
25 1 -42.984 0.486268 399.131 -42.984 4.91372 399.131
38 1 -35.2401 0.407079 399.227 -35.2401 4.83453 399.227
23 1 -44.5121 0.430163 401.133 -44.5121 4.85762 401.133
287 1 -47.5722 0.342691 405.142 -47.5722 4.77014 405.142
878 1 -38.3798 0.149469 413.501 -38.3798 4.57692 413.501
579 1 -44.511 0.206048 411.336 -44.511 4.6335 411.336
585 1 -41.4312 0.287556 407.304 -41.4312 4.71501 407.304
290 1 -46.0435 0.386027 403.132 -46.0435 4.81348 403.132
11 1 -52.1832 0.424334 401.013 -52.1832 4.85179 401.013
595 1 -35.2928 0.229982 409.475 -35.2928 4.65743 409.475
1134 1 -56.8019 0.0841819 417.243 -56.8019 4.51163 417.243
283 1 -49.1045 0.301098 407.156 -49.1045 4.72855 407.156
582 1 -42.9708 0.247468 409.32 -42.9708 4.67492 409.32
276 1 -53.7173 0.40181 402.986 -53.7173 4.82926 402.986
569 1 -50.6395 0.259732 409.173 -50.6395 4.68718 409.173
847 1 -55.2588 0.129745 415.226 -55.2588 4.5572 415.226
272 1 -55.2349 0.363089 404.997 -55.2349 4.79054 404.997
35 1 -36.8 0.391892 401.251 -36.8 4.81934 401.251
598 1 -33.749 0.268234 407.464 -33.749 4.69569 407.464
850 1 -53.7171 0.17394 413.208 -53.7171 4.60139 413.208
304 1 -38.3496 0.363561 403.273 -38.3496 4.79101 403.273
301 1 -39.8914 0.326355 405.289 -39.8914 4.75381 405.289
314 1 -32.204 0.305017 405.455 -32.204 4.73247 405.455
864 1 -46.0523 0.163469 413.353 -46.0523 4.59092 413.353
566 1 -52.177 0.217056 411.19 -52.177 4.64451 411.19
1176 1 -32.2476 0.0934896 415.674 -32.2476 4.52094 415.674
85 1 -6.79436 1.19264 396.337 -6.79436 1.19264 396.337
58 1 -23.6784 1.13391 397.876 -23.6784 1.13391 397.876
45 1 -31.4511 1.21511 397.769 -31.4511 1.21511 397.769
49 1 -29.0731 1.88242 398.089 -29.0731 1.88242 398.089
72 1 -15.273 3.39791 397.133 -15.273 3.39791 397.133
80 1 -9.84775 2.61579 396.904 -9.84775 2.61579 396.904
75 1 -12.8977 4.06657 397.457 -12.8977 4.06657 397.457
83 1 -7.53823 3.39361 397.243 -7.53823 3.39361 397.243
52 1 -26.7819 2.66935 398.466 -26.7819 2.66935 398.466
61 1 -21.388 1.92103 398.254 -21.388 1.92103 398.254
63 1 -20.6622 4.14603 397.342 -20.6622 4.14603 397.342
87 1 -5.19604 4.06477 397.575 -5.19604 4.06477 397.575