ITEM: TIMESTEP
0
ITEM: NUMBER OF ATOMS
4630
ITEM: BOX BOUNDS xy xz yz pp pp pp
-5.5840988501799998e+01 9.8860020349999999e+01 0.0000000000000000e+00
0.0000000000000000e+00 4.4274527100805940e+00 0.0000000000000000e+00
3.8000000000000000e+02 5.0000000000000000e+02 0.0000000000000000e+00
ITEM: ATOMS id type x y z xu yu zu
27 1 -41.9457 2.65311 397.988 -41.9457 2.65311 397.988
36 1 -36.507 1.90512 397.621 -36.507 1.90512 397.621
31 1 -39.5525 3.32738 398.241 -39.5525 3.32738 398.241
22 1 -45.0045 4.08165 398.644 -45.0045 4.08165 398.644
20 1 -45.7433 1.86585 399.58 -45.7433 1.86585 399.58
40 1 -34.1162 2.58253 397.881 -34.1162 2.58253 397.881
34 1 -37.2302 4.10598 398.543 -37.2302 4.10598 398.543
17 1 -48.0689 1.10426 399.288 -48.0689 1.10426 399.288
9 1 -53.4502 1.78175 399.628 -53.4502 1.78175 399.628
43 1 -31.7952 3.36214 398.186 -31.7952 3.36214 398.186
12 1 -51.1655 2.62768 399.961 -51.1655 2.62768 399.961
29 1 -40.3155 1.10182 399.176 -40.3155 1.10182 399.176
853 1 -51.6498 3.06139 414.53 -51.6498 3.06139 414.53
873 1 -40.8328 1.59038 413.78 -40.8328 1.59038 413.78
865 1 -44.6748 0.822278 415.5 -44.6748 0.822278 415.5
1174 1 -32.2773 2.27044 416.108 -32.2773 2.27044 416.108
883 1 -35.4179 0.852018 413.411 -35.4179 0.852018 413.411
863 1 -46.2439 2.32734 414.154 -46.2439 2.32734 414.154
315 1 -31.7394 1.80089 401.542 -31.7394 1.80089 401.542
307 1 -36.3507 3.24125 404.266 -36.3507 3.24125 404.266
1150 1 -46.1899 0.781315 417.545 -46.1899 0.781315 417.545
855 1 -50.0823 1.55655 415.876 -50.0823 1.55655 415.876
310 1 -34.8353 3.27447 402.232 -34.8353 3.27447 402.232
871 1 -41.5905 3.78457 414.801 -41.5905 3.78457 414.801
16 1 -48.818 3.30722 400.229 -48.818 3.30722 400.229
309 1 -34.7742 1.73706 405.613 -34.7742 1.73706 405.613
1156 1 -43.1062 3.74471 416.845 -43.1062 3.74471 416.845
867 1 -43.9175 3.05608 414.477 -43.9175 3.05608 414.477
1159 1 -40.7795 0.0461728 417.17 -40.7795 4.47363 417.17
1168 1 -35.3654 3.73682 416.8 -35.3654 3.73682 416.8
1170 1 -34.6063 1.54225 415.78 -34.6063 1.54225 415.78
594 1 -35.5318 3.93368 406.633 -35.5318 3.93368 406.633
37 1 -35.6491 2.57225 399.876 -35.6491 2.57225 399.876
851 1 -52.406 0.826675 415.554 -52.406 0.826675 415.554
857 1 -49.3257 3.79117 414.853 -49.3257 3.79117 414.853
592 1 -36.2892 1.70232 407.653 -36.2892 1.70232 407.653
849 1 -53.1625 3.01913 416.577 -53.1625 3.01913 416.577
877 1 -38.5048 2.31862 414.105 -38.5048 2.31862 414.105
1143 1 -50.8391 3.74916 416.899 -50.8391 3.74916 416.899
1140 1 -52.3536 3.70618 418.946 -52.3536 3.70618 418.946
845 1 -55.4853 2.28933 416.255 -55.4853 2.28933 416.255
875 1 -39.2629 0.0855474 415.126 -39.2629 4.513 415.126
886 1 -33.9011 0.889176 411.371 -33.9011 0.889176 411.371
891 1 -30.8116 3.84847 410.681 -30.8116 3.84847 410.681
39 1 -34.0824 1.07412 401.208 -34.0824 1.07412 401.208
1177 1 -30.7078 0.765989 417.457 -30.7078 0.765989 417.457
1167 1 -36.1247 1.50373 417.821 -36.1247 1.50373 417.821
8 1 -54.2293 4.04883 400.677 -54.2293 4.04883 400.677
869 1 -42.3482 1.55104 415.823 -42.3482 1.55104 415.823
1136 1 -54.6764 2.97571 418.624 -54.6764 2.97571 418.624
1162 1 -39.2112 2.96894 418.516 -39.2112 2.96894 418.516
15 1 -49.5792 1.09104 401.294 -49.5792 1.09104 401.294
280 1 -51.0838 1.06082 403.332 -51.0838 1.06082 403.332
277 1 -52.5926 1.0356 405.372 -52.5926 1.0356 405.372
273 1 -54.0946 0.997053 407.421 -54.0946 0.997053 407.421
560 1 -55.6008 0.957915 409.469 -55.6008 0.957915 409.469
26 1 -41.8346 1.09069 401.23 -41.8346 1.09069 401.23
294 1 -43.3472 1.06187 403.285 -43.3472 1.06187 403.285
291 1 -44.8566 1.02536 405.329 -44.8566 1.02536 405.329
576 1 -46.3647 0.987089 407.372 -46.3647 0.987089 407.372
573 1 -47.8737 0.94885 409.416 -47.8737 0.94885 409.416
570 1 -49.3831 0.909193 411.461 -49.3831 0.909193 411.461
854 1 -50.8939 0.868392 413.507 -50.8939 0.868392 413.507
305 1 -37.1071 1.01057 405.285 -37.1071 1.01057 405.285
589 1 -38.6202 0.975108 407.326 -38.6202 0.975108 407.326
586 1 -40.1332 0.938507 409.368 -40.1332 0.938507 409.368
872 1 -41.6465 0.900856 411.411 -41.6465 0.900856 411.411
599 1 -32.3842 0.925271 409.331 -32.3842 0.925271 409.331
4 1 -55.7523 4.058 402.664 -55.7523 4.058 402.664
1152 1 -45.4323 3.01565 416.522 -45.4323 3.01565 416.522
19 1 -46.5081 4.05169 400.608 -46.5081 4.05169 400.608
286 1 -48.0095 4.01754 402.622 -48.0095 4.01754 402.622
282 1 -49.51 3.98572 404.671 -49.51 3.98572 404.671
279 1 -51.0173 3.95494 406.717 -51.0173 3.95494 406.717
565 1 -52.523 3.9178 408.766 -52.523 3.9178 408.766
563 1 -54.031 3.87857 410.814 -54.031 3.87857 410.814
846 1 -55.5408 3.83792 412.862 -55.5408 3.83792 412.862
32 1 -38.7485 4.05149 400.564 -38.7485 4.05149 400.564
300 1 -40.2616 4.0192 402.594 -40.2616 4.0192 402.594
297 1 -41.7715 3.98431 404.634 -41.7715 3.98431 404.634
293 1 -43.2812 3.94838 406.676 -43.2812 3.94838 406.676
578 1 -44.7913 3.9108 408.719 -44.7913 3.9108 408.719
575 1 -46.3021 3.87219 410.763 -46.3021 3.87219 410.763
860 1 -47.8134 3.83224 412.808 -47.8134 3.83224 412.808
591 1 -37.0464 3.89805 408.674 -37.0464 3.89805 408.674
588 1 -38.5607 3.86123 410.715 -38.5607 3.86123 410.715
874 1 -40.0754 3.82339 412.758 -40.0754 3.82339 412.758
10 1 -52.6634 2.55759 401.991 -52.6634 2.55759 401.991
274 1 -54.1726 2.54674 404.022 -54.1726 2.54674 404.022
271 1 -55.6666 2.50428 406.076 -55.6666 2.50428 406.076
24 1 -43.4328 2.6051 399.942 -43.4328 2.6051 399.942
21 1 -44.9349 2.56583 401.947 -44.9349 2.56583 401.947
288 1 -46.4342 2.52808 403.984 -46.4342 2.52808 403.984
285 1 -47.9383 2.48876 406.025 -47.9383 2.48876 406.025
571 1 -49.4455 2.45208 408.068 -49.4455 2.45208 408.068
568 1 -50.953 2.41329 410.114 -50.953 2.41329 410.114
852 1 -52.4623 2.37314 412.161 -52.4623 2.37314 412.161
848 1 -53.9732 2.33196 414.208 -53.9732 2.33196 414.208
306 1 -37.1701 2.54541 401.899 -37.1701 2.54541 401.899
302 1 -38.6837 2.51389 403.935 -38.6837 2.51389 403.935
299 1 -40.195 2.47926 405.978 -40.195 2.47926 405.978
583 1 -41.7066 2.44326 408.021 -41.7066 2.44326 408.021
581 1 -43.2185 2.40584 410.065 -43.2185 2.40584 410.065
866 1 -44.7309 2.36724 412.109 -44.7309 2.36724 412.109
880 1 -36.989 2.35661 412.063 -36.989 2.35661 412.063
312 1 -33.2582 1.77016 403.575 -33.2582 1.77016 403.575
13 1 -50.325 3.28567 402.292 -50.325 3.28567 402.292
278 1 -51.8383 3.26285 404.344 -51.8383 3.26285 404.344
275 1 -53.3427 3.23044 406.394 -53.3427 3.23044 406.394
562 1 -54.847 3.19119 408.444 -54.847 3.19119 408.444
1166 1 -36.884 3.6979 418.842 -36.884 3.6979 418.842
889 1 -31.5705 1.61673 411.7 -31.5705 1.61673 411.7
28 1 -41.0807 3.31929 400.239 -41.0807 3.31929 400.239
296 1 -42.5946 3.29098 402.268 -42.5946 3.29098 402.268
292 1 -44.103 3.2577 404.308 -44.103 3.2577 404.308
289 1 -45.6105 3.22015 406.351 -45.6105 3.22015 406.351
574 1 -47.1191 3.1819 408.394 -47.1191 3.1819 408.394
572 1 -48.6283 3.14299 410.438 -48.6283 3.14299 410.438
856 1 -50.1383 3.10264 412.484 -50.1383 3.10264 412.484
303 1 -37.864 3.20659 406.305 -37.864 3.20659 406.305
587 1 -39.3768 3.17061 408.347 -39.3768 3.17061 408.347
584 1 -40.8898 3.13352 410.39 -40.8898 3.13352 410.39
870 1 -42.4034 3.09536 412.433 -42.4034 3.09536 412.433
6 1 -55.001 1.85567 401.637 -55.001 1.85567 401.637
890 1 -30.7584 2.30776 414.069 -30.7584 2.30776 414.069
18 1 -47.2539 1.82172 401.612 -47.2539 1.82172 401.612
284 1 -48.7564 1.78912 403.653 -48.7564 1.78912 403.653
281 1 -50.2639 1.75779 405.697 -50.2639 1.75779 405.697
567 1 -51.7702 1.72339 407.742 -51.7702 1.72339 407.742
564 1 -53.2768 1.68461 409.79 -53.2768 1.68461 409.79
561 1 -54.7858 1.64477 411.838 -54.7858 1.64477 411.838
33 1 -38.0036 1.85536 399.57 -38.0036 1.85536 399.57
30 1 -39.5127 1.81904 401.568 -39.5127 1.81904 401.568
298 1 -41.0172 1.78742 403.61 -41.0172 1.78742 403.61
295 1 -42.5263 1.7528 405.653 -42.5263 1.7528 405.653
580 1 -44.0362 1.71595 407.697 -44.0362 1.71595 407.697
577 1 -45.5467 1.67786 409.741 -45.5467 1.67786 409.741
862 1 -47.0577 1.63864 411.785 -47.0577 1.63864 411.785
590 1 -37.8035 1.66606 409.694 -37.8035 1.66606 409.694
876 1 -39.318 1.62871 411.737 -39.318 1.62871 411.737
1163 1 -38.4523 0.775002 417.495 -38.4523 0.775002 417.495
1153 1 -44.6225 3.70384 418.89 -44.6225 3.70384 418.89
311 1 -34.0157 3.96784 404.594 -34.0157 3.96784 404.594
42 1 -32.5682 1.11138 399.212 -32.5682 1.11138 399.212
1135 1 -55.4338 0.739874 419.648 -55.4338 0.739874 419.648
1171 1 -33.7965 2.23233 418.148 -33.7965 2.23233 418.148
1139 1 -53.1112 1.4706 419.97 -53.1112 1.4706 419.97
601 1 -31.6256 3.15658 408.312 -31.6256 3.15658 408.312
313 1 -32.4966 4.00092 402.555 -32.4966 4.00092 402.555
858 1 -48.5694 1.59809 413.83 -48.5694 1.59809 413.83
868 1 -43.1604 0.862144 413.455 -43.1604 0.862144 413.455
1147 1 -48.5149 0.0516655 417.222 -48.5149 4.47912 417.222
593 1 -35.4734 2.39363 410.022 -35.4734 2.39363 410.022
308 1 -35.5933 1.04372 403.245 -35.5933 1.04372 403.245
861 1 -47.0007 0.0932226 415.176 -47.0007 4.52068 415.176
1158 1 -41.538 2.23986 418.191 -41.538 2.23986 418.191
884 1 -34.6595 3.08444 412.391 -34.6595 3.08444 412.391
881 1 -36.1763 3.04682 414.432 -36.1763 3.04682 414.432
885 1 -33.8473 3.77493 414.759 -33.8473 3.77493 414.759
859 1 -47.7577 2.28629 416.199 -47.7577 2.28629 416.199
596 1 -33.9578 2.42951 407.982 -33.9578 2.42951 407.982
879 1 -36.9349 0.813941 415.453 -36.9349 0.813941 415.453
1172 1 -33.0368 0.0377519 417.128 -33.0368 4.4652 417.128
1154 1 -43.8642 1.51068 417.868 -43.8642 1.51068 417.868
887 1 -33.0884 1.57995 413.739 -33.0884 1.57995 413.739
597 1 -33.1427 3.12109 410.351 -33.1427 3.12109 410.351
1161 1 -40.0211 2.2797 416.148 -40.0211 2.2797 416.148
1138 1 -53.9193 0.783836 417.601 -53.9193 0.783836 417.601
1149 1 -46.9478 2.97418 418.567 -46.9478 2.97418 418.567
41 1 -33.3165 3.30629 400.205 -33.3165 3.30629 400.205
888 1 -32.3295 3.81219 412.719 -32.3295 3.81219 412.719
1165 1 -37.6935 3.00831 416.474 -37.6935 3.00831 416.474
1141 1 -51.5962 1.51407 417.923 -51.5962 1.51407 417.923
1145 1 -49.2724 2.24425 418.245 -49.2724 2.24425 418.245
600 1 -32.4415 2.46403 405.944 -32.4415 2.46403 405.944
1148 1 -47.7058 0.739362 419.59 -47.7058 0.739362 419.59
882 1 -36.2312 0.161519 411.042 -36.2312 4.58897 411.042
1157 1 -42.2967 4.43331 419.213 -42.2967 4.43331 419.213
1144 1 -50.03 0.00915129 419.268 -50.03 4.4366 419.268
602 1 -30.8667 0.960126 407.293 -30.8667 0.960126 407.293
1755 1 -29.8102 2.79866 426.6 -29.8102 2.79866 426.6
1460 1 -34.509 2.88327 422.557 -34.509 2.88327 422.557
2308 1 -42.8326 3.32046 437.183 -42.8326 3.32046 437.183
2316 1 -38.2288 1.90547 434.438 -38.2288 1.90547 434.438
2312 1 -40.5101 4.05377 437.504 -40.5101 4.05377 437.504
1464 1 -32.1814 3.61242 422.884 -32.1814 3.61242 422.884
1461 1 -33.7486 0.689172 421.536 -33.7486 0.689172 421.536
2039 1 -32.0564 3.41036 433.045 -32.0564 3.41036 433.045
2613 1 -33.5417 1.82535 438.473 -33.5417 1.82535 438.473
1467 1 -29.8534 4.34131 423.213 -29.8534 4.34131 423.213
2603 1 -38.9477 2.55124 438.849 -38.9477 2.55124 438.849
1443 1 -43.8144 4.39207 421.258 -43.8144 4.39207 421.258
1748 1 -33.7034 3.57317 424.924 -33.7034 3.57317 424.924
2023 1 -40.5524 1.17299 434.115 -40.5524 1.17299 434.115
2310 1 -41.2698 1.81775 438.527 -41.2698 1.81775 438.527
1151 1 -45.3809 1.46932 419.912 -45.3809 1.46932 419.912
2303 1 -45.9143 0.350832 437.885 -45.9143 0.350832 437.885
2299 1 -48.2368 4.04506 437.564 -48.2368 4.04506 437.564
2033 1 -35.1434 0.444898 433.74 -35.1434 0.444898 433.74
1433 1 -49.2224 0.696476 421.636 -49.2224 0.696476 421.636
1430 1 -50.7397 0.652737 423.682 -50.7397 0.652737 423.682
1426 1 -52.2576 0.608297 425.729 -52.2576 0.608297 425.729
1713 1 -53.7762 0.563366 427.775 -53.7762 0.563366 427.775
1710 1 -55.2952 0.518185 429.822 -55.2952 0.518185 429.822
2330 1 -29.6934 2.59843 436.757 -29.6934 2.59843 436.757
1160 1 -39.9703 0.735198 419.538 -39.9703 0.735198 419.538
1447 1 -41.4888 0.694522 421.581 -41.4888 0.694522 421.581
1444 1 -43.0077 0.652971 423.625 -43.0077 0.652971 423.625
1730 1 -44.527 0.610549 425.67 -44.527 0.610549 425.67
1727 1 -46.0465 0.56729 427.715 -46.0465 0.56729 427.715
1724 1 -47.5661 0.523281 429.761 -47.5661 0.523281 429.761
2008 1 -49.0855 0.478659 431.807 -49.0855 0.478659 431.807
2006 1 -50.6047 0.433611 433.853 -50.6047 0.433611 433.853
1458 1 -35.2695 0.649733 423.577 -35.2695 0.649733 423.577
1743 1 -36.7909 0.609555 425.619 -36.7909 0.609555 425.619
1740 1 -38.3124 0.568577 427.661 -38.3124 0.568577 427.661
2026 1 -39.8339 0.526736 429.704 -39.8339 0.526736 429.704
2022 1 -41.3551 0.483994 431.748 -41.3551 0.483994 431.748
2019 1 -42.8757 0.440363 433.793 -42.8757 0.440363 433.793
2309 1 -42.0728 1.12903 436.16 -42.0728 1.12903 436.16
1137 1 -53.869 3.66224 420.993 -53.869 3.66224 420.993
1421 1 -55.3855 3.61753 423.04 -55.3855 3.61753 423.04
1439 1 -46.1395 3.66201 420.935 -46.1395 3.66201 420.935
1435 1 -47.6571 3.61927 422.981 -47.6571 3.61927 422.981
1432 1 -49.1752 3.57569 425.026 -49.1752 3.57569 425.026
1719 1 -50.6937 3.5314 427.073 -50.6937 3.5314 427.073
1716 1 -52.2126 3.48658 429.119 -52.2126 3.48658 429.119
2001 1 -53.7318 3.44147 431.166 -53.7318 3.44147 431.166
1998 1 -55.2511 3.39628 433.212 -55.2511 3.39628 433.212
2323 1 -33.5806 3.3696 435.085 -33.5806 3.3696 435.085
1453 1 -38.403 3.65818 420.884 -38.403 3.65818 420.884
1450 1 -39.9225 3.61763 422.927 -39.9225 3.61763 422.927
1446 1 -41.4423 3.57625 424.97 -41.4423 3.57625 424.97
1732 1 -42.9624 3.534 427.014 -42.9624 3.534 427.014
1729 1 -44.4825 3.4909 429.059 -44.4825 3.4909 429.059
2014 1 -46.0024 3.44702 431.105 -46.0024 3.44702 431.105
2011 1 -47.5221 3.40247 433.151 -47.5221 3.40247 433.151
1745 1 -35.2256 3.53323 426.965 -35.2256 3.53323 426.965
1742 1 -36.7479 3.4925 429.007 -36.7479 3.4925 429.007
2028 1 -38.2701 3.4509 431.049 -38.2701 3.4509 431.049
2025 1 -39.7918 3.40835 433.093 -39.7918 3.40835 433.093
1427 1 -52.3043 2.1574 422.338 -52.3043 2.1574 422.338
1424 1 -53.8216 2.11282 424.385 -53.8216 2.11282 424.385
1711 1 -55.3397 2.06776 426.432 -55.3397 2.06776 426.432
2322 1 -34.3423 1.13508 436.106 -34.3423 1.13508 436.106
1750 1 -32.1376 2.06928 426.272 -32.1376 2.06928 426.272
1155 1 -43.0554 2.19908 420.235 -43.0554 2.19908 420.235
1441 1 -44.5734 2.15738 422.28 -44.5734 2.15738 422.28
1438 1 -46.0919 2.1148 424.325 -46.0919 2.1148 424.325
1725 1 -47.6108 2.07138 426.371 -47.6108 2.07138 426.371
1722 1 -49.1298 2.02723 428.417 -49.1298 2.02723 428.417
1718 1 -50.6491 1.98252 430.463 -50.6491 1.98252 430.463
2003 1 -52.1683 1.93745 432.509 -52.1683 1.93745 432.509
2000 1 -53.6874 1.89225 434.556 -53.6874 1.89225 434.556
1459 1 -35.3161 2.19348 420.189 -35.3161 2.19348 420.189
1455 1 -36.8361 2.15388 422.231 -36.8361 2.15388 422.231
1452 1 -38.3565 2.1135 424.273 -38.3565 2.1135 424.273
1737 1 -39.8772 2.0723 426.316 -39.8772 2.0723 426.316
1735 1 -41.398 2.03025 428.359 -41.398 2.03025 428.359
2020 1 -42.9187 1.98732 430.404 -42.9187 1.98732 430.404
2017 1 -44.439 1.94357 432.449 -44.439 1.94357 432.449
2034 1 -35.1837 1.98915 430.353 -35.1837 1.98915 430.353
2031 1 -36.7066 1.94781 432.395 -36.7066 1.94781 432.395
2029 1 -37.4678 4.1405 433.416 -37.4678 4.1405 433.416
1146 1 -48.464 2.93176 420.613 -48.464 2.93176 420.613
1431 1 -49.981 2.88843 422.659 -49.981 2.88843 422.659
1428 1 -51.4986 2.84432 424.705 -51.4986 2.84432 424.705
1715 1 -53.0168 2.7996 426.752 -53.0168 2.7996 426.752
1712 1 -54.5357 2.75452 428.799 -54.5357 2.75452 428.799
1747 1 -33.6606 2.0296 428.312 -33.6606 2.0296 428.312
1449 1 -40.7295 2.9287 420.559 -40.7295 2.9287 420.559
1445 1 -42.2482 2.88758 422.603 -42.2482 2.88758 422.603
1442 1 -43.7673 2.84559 424.647 -43.7673 2.84559 424.647
1728 1 -45.2867 2.80275 426.692 -45.2867 2.80275 426.692
1726 1 -46.8063 2.7591 428.738 -46.8063 2.7591 428.738
2010 1 -48.3258 2.71476 430.784 -48.3258 2.71476 430.784
2007 1 -49.8452 2.6699 432.83 -49.8452 2.6699 432.83
1456 1 -36.0302 2.84347 424.598 -36.0302 2.84347 424.598
1741 1 -37.5516 2.8029 426.64 -37.5516 2.8029 426.64
1738 1 -39.0732 2.76149 428.683 -39.0732 2.76149 428.683
2024 1 -40.5945 2.71921 430.726 -40.5945 2.71921 430.726
2021 1 -42.1155 2.67601 432.77 -42.1155 2.67601 432.77
2035 1 -34.3817 2.67928 432.719 -34.3817 2.67928 432.719
1754 1 -30.6147 2.10829 424.232 -30.6147 2.10829 424.232
1423 1 -54.6271 1.42624 422.017 -54.6271 1.42624 422.017
2044 1 -28.9679 1.94687 432.352 -28.9679 1.94687 432.352
1437 1 -46.8982 1.42703 421.958 -46.8982 1.42703 421.958
1434 1 -48.416 1.38385 424.003 -48.416 1.38385 424.003
1721 1 -49.9344 1.33989 426.05 -49.9344 1.33989 426.05
1717 1 -51.4531 1.29532 428.096 -51.4531 1.29532 428.096
1714 1 -52.9722 1.25032 430.143 -52.9722 1.25032 430.143
1999 1 -54.4914 1.20515 432.189 -54.4914 1.20515 432.189
1164 1 -37.6434 1.46442 419.863 -37.6434 1.46442 419.863
1451 1 -39.1627 1.42428 421.905 -39.1627 1.42428 421.905
1448 1 -40.6823 1.38332 423.949 -40.6823 1.38332 423.949
1734 1 -42.2023 1.3415 425.992 -42.2023 1.3415 425.992
1731 1 -43.7224 1.29883 428.037 -43.7224 1.29883 428.037
2016 1 -45.2425 1.25533 430.082 -45.2425 1.25533 430.082
2012 1 -46.7623 1.21109 432.128 -46.7623 1.21109 432.128
2009 1 -48.2817 1.16627 434.174 -48.2817 1.16627 434.174
1746 1 -34.4645 1.33957 425.945 -34.4645 1.33957 425.945
1744 1 -35.9867 1.29924 427.986 -35.9867 1.29924 427.986
2030 1 -37.509 1.25809 430.028 -37.509 1.25809 430.028
2027 1 -39.031 1.21602 432.071 -39.031 1.21602 432.071
2325 1 -32.8186 1.17638 434.065 -32.8186 1.17638 434.065
1749 1 -32.8991 4.26325 427.291 -32.8991 4.26325 427.291
1425 1 -53.0629 4.34892 423.361 -53.0629 4.34892 423.361
1736 1 -40.6376 4.26511 427.337 -40.6376 4.26511 427.337
1142 1 -50.7879 2.20127 420.291 -50.7879 2.20127 420.291
1720 1 -49.8895 4.21866 429.44 -49.8895 4.21866 429.44
2005 1 -51.4087 4.17375 431.486 -51.4087 4.17375 431.486
2002 1 -52.9278 4.12858 433.533 -52.9278 4.12858 433.533
1169 1 -34.5562 4.42672 419.169 -34.5562 4.42672 419.169
1723 1 -48.3703 4.26311 427.394 -48.3703 4.26311 427.394
1440 1 -45.3326 4.34993 423.303 -45.3326 4.34993 423.303
1733 1 -42.1583 4.22262 429.381 -42.1583 4.22262 429.381
2018 1 -43.6789 4.17927 431.426 -43.6789 4.17927 431.426
2015 1 -45.199 4.13513 433.472 -45.199 4.13513 433.472
2036 1 -34.4222 4.22321 429.332 -34.4222 4.22321 429.332
2032 1 -35.9452 4.18233 431.373 -35.9452 4.18233 431.373
2326 1 -32.0181 1.86699 436.431 -32.0181 1.86699 436.431
1752 1 -31.3761 4.30259 425.252 -31.3761 4.30259 425.252
1457 1 -36.076 4.3875 421.21 -36.076 4.3875 421.21
2043 1 -29.7694 1.25605 429.986 -29.7694 1.25605 429.986
2286 1 -55.2061 1.84712 436.602 -55.2061 1.84712 436.602
2319 1 -35.8648 1.09259 438.149 -35.8648 1.09259 438.149
1436 1 -46.8513 4.30691 425.348 -46.8513 4.30691 425.348
1422 1 -54.5805 4.30406 425.408 -54.5805 4.30406 425.408
1173 1 -32.228 0.727919 419.496 -32.228 0.727919 419.496
2293 1 -51.3186 1.07568 438.267 -51.3186 1.07568 438.267
2289 1 -53.6418 0.343127 437.946 -53.6418 0.343127 437.946
2295 1 -49.7544 3.99956 439.611 -49.7544 3.99956 439.611
1465 1 -31.4206 1.41807 421.864 -31.4206 1.41807 421.864
2315 1 -38.1875 0.359545 437.826 -38.1875 0.359545 437.826
2331 1 -29.7306 4.14098 433.372 -29.7306 4.14098 433.372
2297 1 -48.9957 1.80859 438.588 -48.9957 1.80859 438.588
2324 1 -32.7801 4.06006 437.452 -32.7801 4.06006 437.452
2306 1 -43.592 1.08425 438.206 -43.592 1.08425 438.206
2285 1 -55.1594 0.298156 439.993 -55.1594 0.298156 439.993
1462 1 -32.9424 1.37915 423.904 -32.9424 1.37915 423.904
1751 1 -31.3341 2.7596 428.639 -31.3341 2.7596 428.639
2329 1 -30.4933 1.90742 434.391 -30.4933 1.90742 434.391
2042 1 -30.5318 3.45016 431.005 -30.5318 3.45016 431.005
2041 1 -31.2941 1.21664 432.025 -31.2941 1.21664 432.025
2593 1 -44.3511 3.27533 439.229 -44.3511 3.27533 439.229
2328 1 -30.456 0.364515 437.777 -30.456 0.364515 437.777
2301 1 -46.6733 2.54184 438.908 -46.6733 2.54184 438.908
1466 1 -30.6599 3.65103 420.845 -30.6599 3.65103 420.845
2298 1 -49.0412 3.35742 435.197 -49.0412 3.35742 435.197
2321 1 -35.1037 3.32772 437.128 -35.1037 3.32772 437.128
2313 1 -39.75 1.8621 436.482 -39.75 1.8621 436.482
2294 1 -50.5596 3.3121 437.244 -50.5596 3.3121 437.244
2304 1 -45.1551 2.58717 436.862 -45.1551 2.58717 436.862
2300 1 -47.4777 1.85401 436.541 -47.4777 1.85401 436.541
2290 1 -52.8827 2.57945 436.923 -52.8827 2.57945 436.923
2318 1 -36.6661 0.402783 435.783 -36.6661 0.402783 435.783
2327 1 -31.2558 4.10107 435.411 -31.2558 4.10107 435.411
2004 1 -51.3642 2.62472 434.876 -51.3642 2.62472 434.876
2013 1 -45.9587 1.89907 434.494 -45.9587 1.89907 434.494
2288 1 -54.4468 4.08339 435.579 -54.4468 4.08339 435.579
2037 1 -33.6199 0.485959 431.699 -33.6199 0.485959 431.699
1739 1 -39.1168 4.30673 425.294 -39.1168 4.30673 425.294
1753 1 -30.5721 0.565481 427.619 -30.5721 0.565481 427.619
2307 1 -43.6358 2.63196 434.816 -43.6358 2.63196 434.816
2314 1 -38.9895 4.09764 435.46 -38.9895 4.09764 435.46
2040 1 -32.096 0.5261 429.658 -32.096 0.5261 429.658
2320 1 -35.9049 2.6377 434.761 -35.9049 2.6377 434.761
2292 1 -52.1235 0.388356 435.9 -52.1235 0.388356 435.9
2311 1 -41.3127 3.36485 435.137 -41.3127 3.36485 435.137
2302 1 -46.7183 4.09033 435.518 -46.7183 4.09033 435.518
2296 1 -49.8005 1.12105 436.22 -49.8005 1.12105 436.22
1463 1 -32.9882 2.92236 420.516 -32.9882 2.92236 420.516
2287 1 -54.4007 2.53432 438.97 -54.4007 2.53432 438.97
2291 1 -52.0773 3.26674 439.29 -52.0773 3.26674 439.29
2317 1 -37.427 2.59503 436.804 -37.427 2.59503 436.804
2038 1 -32.858 2.71986 430.678 -32.858 2.71986 430.678
2305 1 -44.3956 0.395923 435.839 -44.3956 0.395923 435.839
2332 1 -28.9306 0.404597 435.738 -28.9306 0.404597 435.738
1468 1 -29.8993 1.45638 419.825 -29.8993 1.45638 419.825
1454 1 -37.5962 4.34752 423.252 -37.5962 4.34752 423.252
1429 1 -51.546 4.39316 421.314 -51.546 4.39316 421.314
1175 1 -31.4678 2.96077 418.476 -31.4678 2.96077 418.476
2616 1 -31.1805 1.01359 442.185 -31.1805 1.01359 442.185
2901 1 -32.7012 0.969972 444.228 -32.7012 0.969972 444.228
2907 1 -29.6199 3.93914 443.53 -29.6199 3.93914 443.53
3194 1 -30.3394 0.15729 447.942 -30.3394 0.15729 447.942
2587 1 -47.4319 0.305316 439.932 -47.4319 0.305316 439.932
2597 1 -42.0292 4.00898 439.55 -42.0292 4.00898 439.55
2584 1 -48.9481 0.259657 441.979 -48.9481 0.259657 441.979
2581 1 -50.463 0.214166 444.027 -50.463 0.214166 444.027
2868 1 -51.9766 0.169162 446.074 -51.9766 0.169162 446.074
2865 1 -53.4892 0.124941 448.121 -53.4892 0.124941 448.121
2601 1 -39.7073 0.315223 439.872 -39.7073 0.315223 439.872
2598 1 -41.2252 0.269982 441.918 -41.2252 0.269982 441.918
2885 1 -42.7409 0.224114 443.966 -42.7409 0.224114 443.966
2882 1 -44.2544 0.178004 446.014 -44.2544 0.178004 446.014
2879 1 -45.7657 0.132095 448.063 -45.7657 0.132095 448.063
2612 1 -33.5022 0.280258 441.861 -33.5022 0.280258 441.861
2898 1 -35.0216 0.235884 443.906 -35.0216 0.235884 443.906
2895 1 -36.5379 0.190223 445.953 -36.5379 0.190223 445.953
3180 1 -38.051 0.14369 448.002 -38.051 0.14369 448.002
2576 1 -53.5941 3.2216 441.337 -53.5941 3.2216 441.337
2574 1 -55.11 3.17695 443.384 -55.11 3.17695 443.384
2589 1 -45.8681 3.22971 441.276 -45.8681 3.22971 441.276
2586 1 -47.3835 3.1839 443.324 -47.3835 3.1839 443.324
2874 1 -48.8973 3.13825 445.372 -48.8973 3.13825 445.372
2871 1 -50.4096 3.09311 447.419 -50.4096 3.09311 447.419
3155 1 -51.9207 3.04879 449.466 -51.9207 3.04879 449.466
2607 1 -36.6254 3.28461 439.171 -36.6254 3.28461 439.171
2604 1 -38.1451 3.24029 441.216 -38.1451 3.24029 441.216
2600 1 -39.6625 3.19495 443.263 -39.6625 3.19495 443.263
2887 1 -41.1774 3.1489 445.311 -41.1774 3.1489 445.311
2884 1 -42.6898 3.1026 447.36 -42.6898 3.1026 447.36
3168 1 -44.1998 3.05655 449.409 -44.1998 3.05655 449.409
2900 1 -33.4604 3.16128 445.251 -33.4604 3.16128 445.251
2897 1 -34.9761 3.1154 447.299 -34.9761 3.1154 447.299
2582 1 -50.5127 1.76309 440.635 -50.5127 1.76309 440.635
2579 1 -52.0286 1.71778 442.682 -52.0286 1.71778 442.682
2866 1 -53.5434 1.67294 444.729 -53.5434 1.67294 444.729
2578 1 -52.8358 1.0304 440.314 -52.8358 1.0304 440.314
2595 1 -42.7881 1.77258 440.574 -42.7881 1.77258 440.574
2592 1 -44.3044 1.72685 442.621 -44.3044 1.72685 442.621
2880 1 -45.8189 1.68089 444.669 -45.8189 1.68089 444.669
2877 1 -47.3315 1.6351 446.717 -47.3315 1.6351 446.717
2873 1 -48.8425 1.58987 448.765 -48.8425 1.58987 448.765
2609 1 -35.0636 1.78236 440.516 -35.0636 1.78236 440.516
2606 1 -36.5832 1.73803 442.561 -36.5832 1.73803 442.561
2892 1 -38.1001 1.69255 444.608 -38.1001 1.69255 444.608
2890 1 -39.6141 1.64628 446.656 -39.6141 1.64628 446.656
3174 1 -41.1253 1.59973 448.706 -41.1253 1.59973 448.706
2618 1 -30.419 3.24849 441.164 -30.419 3.24849 441.164
2585 1 -48.1901 2.49621 440.955 -48.1901 2.49621 440.955
2583 1 -49.7057 2.4506 443.003 -49.7057 2.4506 443.003
2870 1 -51.2199 2.40531 445.05 -51.2199 2.40531 445.05
2867 1 -52.733 2.36066 447.097 -52.733 2.36066 447.097
2863 1 -54.2451 2.31693 449.144 -54.2451 2.31693 449.144
2599 1 -40.4665 2.50643 440.895 -40.4665 2.50643 440.895
2596 1 -41.9833 2.46083 442.942 -41.9833 2.46083 442.942
2883 1 -43.4979 2.41479 444.99 -43.4979 2.41479 444.99
2881 1 -45.0103 2.36872 447.039 -45.0103 2.36872 447.039
3164 1 -46.5207 2.32308 449.087 -46.5207 2.32308 449.087
2610 1 -34.2623 2.47198 442.883 -34.2623 2.47198 442.883
2896 1 -35.7802 2.42692 444.929 -35.7802 2.42692 444.929
2893 1 -37.2949 2.38076 446.977 -37.2949 2.38076 446.977
3178 1 -38.8062 2.334 449.027 -38.8062 2.334 449.027
2575 1 -54.3522 0.985475 442.361 -54.3522 0.985475 442.361
2591 1 -45.1098 1.03884 440.253 -45.1098 1.03884 440.253
2588 1 -46.626 0.993086 442.3 -46.626 0.993086 442.3
2876 1 -48.1406 0.94731 444.348 -48.1406 0.94731 444.348
2872 1 -49.6536 0.901867 446.395 -49.6536 0.901867 446.395
2869 1 -51.1653 0.8571 448.443 -51.1653 0.8571 448.443
2605 1 -37.3855 1.04887 440.194 -37.3855 1.04887 440.194
2602 1 -38.9041 1.004 442.24 -38.9041 1.004 442.24
2889 1 -40.4203 0.958262 444.287 -40.4203 0.958262 444.287
2886 1 -41.9339 0.912028 446.335 -41.9339 0.912028 446.335
3170 1 -43.4451 0.865785 448.384 -43.4451 0.865785 448.384
2899 1 -34.2187 0.924764 446.275 -34.2187 0.924764 446.275
3184 1 -35.7325 0.878341 448.323 -35.7325 0.878341 448.323
2580 1 -51.2708 3.95412 441.658 -51.2708 3.95412 441.658
2577 1 -52.7861 3.90901 443.705 -52.7861 3.90901 443.705
2864 1 -54.3005 3.86452 445.752 -54.3005 3.86452 445.752
2862 1 -55.0573 1.62886 446.775 -55.0573 1.62886 446.775
2594 1 -43.5465 3.96349 441.597 -43.5465 3.96349 441.597
2590 1 -45.0619 3.9176 443.645 -45.0619 3.9176 443.645
2878 1 -46.5754 3.87168 445.693 -46.5754 3.87168 445.693
2875 1 -48.0872 3.82612 447.741 -48.0872 3.82612 447.741
3159 1 -49.5975 3.78131 449.789 -49.5975 3.78131 449.789
2611 1 -34.3029 4.01776 439.494 -34.3029 4.01776 439.494
2608 1 -35.8237 3.97409 441.538 -35.8237 3.97409 441.538
2894 1 -37.342 3.92914 443.584 -37.342 3.92914 443.584
2891 1 -38.8575 3.88321 445.632 -38.8575 3.88321 445.632
2888 1 -40.3701 3.83673 447.681 -40.3701 3.83673 447.681
2904 1 -31.1407 3.8955 445.574 -31.1407 3.8955 445.574
2621 1 -28.8944 3.28961 439.123 -28.8944 3.28961 439.123
2617 1 -31.2183 2.55773 438.797 -31.2183 2.55773 438.797
2614 1 -32.7415 2.51561 440.839 -32.7415 2.51561 440.839
2908 1 -28.8208 0.202034 445.897 -28.8208 0.202034 445.897
2619 1 -29.657 1.05552 440.143 -29.657 1.05552 440.143
2906 1 -29.5807 2.39364 446.919 -29.5807 2.39364 446.919
2905 1 -30.3808 1.70383 444.552 -30.3808 1.70383 444.552
2620 1 -28.8584 1.74651 442.509 -28.8584 1.74651 442.509
3190 1 -32.6576 3.85009 447.62 -32.6576 3.85009 447.62
2902 1 -31.8997 1.65927 446.597 -31.8997 1.65927 446.597
2903 1 -31.9412 3.20572 443.206 -31.9412 3.20572 443.206
2615 1 -31.9801 0.323131 439.818 -31.9801 0.323131 439.818
2909 1 -28.06 2.43734 444.876 -28.06 2.43734 444.876
14 1 -50.4606 0.426905 399.034 -50.4606 4.85436 399.034
7 1 -54.9817 3.37674 398.497 -54.9817 3.37674 398.497
25 1 -42.6756 0.425892 398.91 -42.6756 4.85334 398.91
38 1 -34.8766 0.35708 398.815 -34.8766 4.78453 398.815
23 1 -44.179 0.373365 400.94 -44.179 4.80082 400.94
287 1 -47.1862 0.293495 405.003 -47.1862 4.72095 405.003
878 1 -37.7469 0.123998 413.084 -37.7469 4.55145 413.084
579 1 -43.9746 0.172987 411.087 -43.9746 4.60044 411.087
585 1 -40.9506 0.247824 407 -40.9506 4.67528 407
290 1 -45.6841 0.332697 402.965 -45.6841 4.76015 402.965
11 1 -51.9155 0.364463 401.01 -51.9155 4.79192 401.01
595 1 -34.7156 0.198015 409.002 -34.7156 4.62547 409.002
283 1 -48.692 0.256504 407.045 -48.692 4.68396 407.045
582 1 -42.4624 0.21101 409.043 -42.4624 4.63846 409.043
276 1 -53.4264 0.346204 403.015 -53.4264 4.77366 403.015
569 1 -50.1991 0.219139 409.09 -50.1991 4.64659 409.09
847 1 -54.7291 0.0970973 415.231 -54.7291 4.52455 415.231
272 1 -54.9194 0.311648 405.052 -54.9194 4.7391 405.052
35 1 -36.4046 0.345188 400.865 -36.4046 4.77264 400.865
598 1 -33.1996 0.233273 406.963 -33.1996 4.66073 406.963
850 1 -53.2175 0.138978 413.184 -53.2175 4.56643 413.184
304 1 -37.9244 0.317887 402.914 -37.9244 4.74534 402.914
301 1 -39.4384 0.283471 404.957 -39.4384 4.71092 404.957
314 1 -31.6825 0.267231 404.925 -31.6825 4.69468 404.925
864 1 -45.4873 0.133735 413.131 -45.4873 4.56119 413.131
566 1 -51.7073 0.179562 411.137 -51.7073 4.60701 411.137
1176 1 -31.5178 0.0754743 415.088 -31.5178 4.50293 415.088
85 1 -6.23448 1.16663 395.21 -6.23448 1.16663 395.21
58 1 -23.2455 1.09478 397.175 -23.2455 1.09478 397.175
45 1 -31.0714 1.16131 397.264 -31.0714 1.16131 397.264
49 1 -28.6807 1.83846 397.526 -28.6807 1.83846 397.526
72 1 -14.7689 3.36034 396.217 -14.7689 3.36034 396.217
80 1 -9.30235 2.59183 395.852 -9.30235 2.59183 395.852
75 1 -12.3805 4.04047 396.483 -12.3805 4.04047 396.483
83 1 -6.97207 3.36596 396.128 -6.97207 3.36596 396.128
52 1 -26.3602 2.61817 397.833 -26.3602 2.61817 397.833
61 1 -20.9254 1.87519 397.484 -20.9254 1.87519 397.484
63 1 -20.2006 4.10193 396.563 -20.2006 4.10193 396.563
87 1 -4.6102 4.04773 396.406 -4.6102 4.04773 396.406
70 1 -15.4913 1.1338 397.139 -15.4913 1.1338 397.139
47 1 -29.4421 4.04044 398.46 -29.4421 4.04044 398.46