ITEM: TIMESTEP
0
ITEM: NUMBER OF ATOMS
4630
ITEM: BOX BOUNDS xy xz yz pp pp pp
-6.4040988501800001e+01 1.0706002035000000e+02 0.0000000000000000e+00
0.0000000000000000e+00 4.4274527100805940e+00 0.0000000000000000e+00
3.8000000000000000e+02 5.0000000000000000e+02 0.0000000000000000e+00
ITEM: ATOMS id type x y z xu yu zu
27 1 -46.1354 1.97687 399.731 -46.1354 1.97687 399.731
36 1 -40.4881 1.23628 399.79 -40.4881 1.23628 399.79
31 1 -43.7359 2.67496 400.169 -43.7359 2.67496 400.169
22 1 -49.3583 3.42782 400.135 -49.3583 3.42782 400.135
20 1 -50.25 1.20508 400.975 -50.25 1.20508 400.975
40 1 -38.0905 1.9355 400.23 -38.0905 1.9355 400.23
34 1 -41.3566 3.4345 400.619 -41.3566 3.4345 400.619
17 1 -52.6333 0.4556 400.531 -52.6333 0.4556 400.531
9 1 -58.2496 1.1491 400.439 -58.2496 1.1491 400.439
43 1 -35.7118 2.69583 400.681 -35.7118 2.69583 400.681
12 1 -55.8955 1.95481 400.918 -55.8955 1.95481 400.918
5 1 -60.6413 0.465466 399.977 -60.6413 0.465466 399.977
29 1 -44.6038 0.446331 401.019 -44.6038 0.446331 401.019
853 1 -57.6904 2.6504 415.03 -57.6904 2.6504 415.03
873 1 -46.3981 1.17526 415.164 -46.3981 1.17526 415.164
865 1 -50.5299 0.435185 416.53 -50.5299 0.435185 416.53
1174 1 -37.7204 1.90616 418.093 -37.7204 1.90616 418.093
883 1 -40.751 0.436339 415.228 -40.751 0.436339 415.228
863 1 -52.0457 1.91392 415.096 -52.0457 1.91392 415.096
315 1 -35.9393 1.19675 403.958 -35.9393 1.19675 403.958
307 1 -40.938 2.6685 406.264 -40.938 2.6685 406.264
1150 1 -52.2728 0.430994 418.397 -52.2728 0.430994 418.397
855 1 -56.1751 1.17199 416.464 -56.1751 1.17199 416.464
310 1 -39.1946 2.67424 404.401 -39.1946 2.67424 404.401
871 1 -47.2702 3.38734 416.097 -47.2702 3.38734 416.097
16 1 -53.5015 2.65395 401.382 -53.5015 2.65395 401.382
309 1 -39.422 1.18977 407.694 -39.422 1.18977 407.694
1156 1 -49.0141 3.38379 417.963 -49.0141 3.38379 417.963
867 1 -49.658 2.65076 415.597 -49.658 2.65076 415.597
1159 1 -46.6265 4.12045 418.463 -46.6265 4.12045 418.463
1168 1 -40.9796 3.38152 418.528 -40.9796 3.38152 418.528
1170 1 -40.1076 1.1695 417.594 -40.1076 1.1695 417.594
594 1 -40.2938 3.40149 408.629 -40.2938 3.40149 408.629
37 1 -39.8379 1.94172 402.06 -39.8379 1.94172 402.06
851 1 -58.5613 0.434172 415.964 -58.5613 0.434172 415.964
857 1 -55.3041 3.38814 415.53 -55.3041 3.38814 415.53
592 1 -41.1654 1.1859 409.563 -41.1654 1.1859 409.563
849 1 -59.4322 2.64546 416.899 -59.4322 2.64546 416.899
877 1 -44.0104 1.91177 415.663 -44.0104 1.91177 415.663
1143 1 -57.046 3.38329 417.398 -57.046 3.38329 417.398
1140 1 -58.788 3.37852 419.266 -58.788 3.37852 419.266
845 1 -61.8183 1.90763 416.4 -61.8183 1.90763 416.4
875 1 -44.8825 4.12384 416.596 -44.8825 4.12384 416.596
886 1 -39.0072 0.439942 413.361 -39.0072 0.439942 413.361
891 1 -35.7485 3.39235 412.926 -35.7485 3.39235 412.926
39 1 -38.3275 0.45529 403.453 -38.3275 0.45529 403.453
1177 1 -36.2052 0.427355 419.526 -36.2052 0.427355 419.526
1167 1 -41.8515 1.16609 419.461 -41.8515 1.16609 419.461
8 1 -59.1276 3.40308 401.393 -59.1276 3.40308 401.393
869 1 -48.1423 1.17191 417.03 -48.1423 1.17191 417.03
1136 1 -61.1742 2.64077 418.768 -61.1742 2.64077 418.768
1162 1 -45.1109 2.64153 419.896 -45.1109 2.64153 419.896
15 1 -54.3762 0.459427 402.364 -54.3762 0.459427 402.364
280 1 -56.1243 0.452172 404.205 -56.1243 0.452172 404.205
277 1 -57.8806 0.460046 406.061 -57.8806 0.460046 406.061
273 1 -59.6255 0.455261 407.924 -59.6255 0.455261 407.924
560 1 -61.3651 0.447427 409.794 -61.3651 0.447427 409.794
557 1 -63.1062 0.441514 411.664 -63.1062 0.441514 411.664
26 1 -46.3492 0.464462 402.894 -46.3492 0.464462 402.894
294 1 -48.097 0.461906 404.769 -48.097 0.461906 404.769
291 1 -49.8417 0.453018 406.633 -49.8417 0.453018 406.633
576 1 -51.5862 0.448339 408.499 -51.5862 0.448339 408.499
573 1 -53.3327 0.446604 410.363 -53.3327 0.446604 410.363
570 1 -55.0772 0.443762 412.228 -55.0772 0.443762 412.228
854 1 -56.8195 0.439178 414.096 -56.8195 0.439178 414.096
305 1 -41.8084 0.453203 407.197 -41.8084 0.453203 407.197
589 1 -43.5525 0.449354 409.065 -43.5525 0.449354 409.065
586 1 -45.2967 0.445491 410.932 -45.2967 0.445491 410.932
872 1 -47.0412 0.441961 412.798 -47.0412 0.441961 412.798
599 1 -37.2636 0.443768 411.493 -37.2636 0.443768 411.493
1132 1 -63.5605 1.90312 418.269 -63.5605 1.90312 418.269
4 1 -60.9226 3.43124 403.178 -60.9226 3.43124 403.178
268 1 -62.6549 3.40994 405.047 -62.6549 3.40994 405.047
1152 1 -51.4015 2.64688 417.463 -51.4015 2.64688 417.463
19 1 -51.1325 3.39825 401.896 -51.1325 3.39825 401.896
286 1 -52.8666 3.39835 403.754 -52.8666 3.39835 403.754
282 1 -54.6111 3.40163 405.629 -54.6111 3.40163 405.629
279 1 -56.3631 3.40458 407.493 -56.3631 3.40458 407.493
565 1 -58.1088 3.4024 409.358 -58.1088 3.4024 409.358
563 1 -59.85 3.39644 411.228 -59.85 3.39644 411.228
846 1 -61.5913 3.39079 413.097 -61.5913 3.39079 413.097
32 1 -43.0922 3.41076 402.483 -43.0922 3.41076 402.483
300 1 -44.8386 3.41241 404.341 -44.8386 3.41241 404.341
297 1 -46.5839 3.40787 406.201 -46.5839 3.40787 406.201
293 1 -48.3272 3.40311 408.067 -48.3272 3.40311 408.067
578 1 -50.0716 3.3988 409.933 -50.0716 3.3988 409.933
575 1 -51.8172 3.39593 411.797 -51.8172 3.39593 411.797
860 1 -53.5615 3.39259 413.663 -53.5615 3.39259 413.663
591 1 -42.0375 3.39765 410.496 -42.0375 3.39765 410.496
588 1 -43.7815 3.39403 412.364 -43.7815 3.39403 412.364
874 1 -45.5258 3.39061 414.23 -45.5258 3.39061 414.23
10 1 -57.6318 1.91794 402.782 -57.6318 1.91794 402.782
274 1 -59.4013 1.94306 404.621 -59.4013 1.94306 404.621
271 1 -61.1415 1.93421 406.486 -61.1415 1.93421 406.486
558 1 -62.8795 1.925 408.359 -62.8795 1.925 408.359
24 1 -47.8827 1.93363 401.489 -47.8827 1.93363 401.489
21 1 -49.6181 1.93711 403.331 -49.6181 1.93711 403.331
288 1 -51.354 1.92964 405.202 -51.354 1.92964 405.202
285 1 -53.0995 1.9255 407.068 -53.0995 1.9255 407.068
571 1 -54.8481 1.92518 408.929 -54.8481 1.92518 408.929
568 1 -56.593 1.92282 410.794 -56.593 1.92282 410.794
852 1 -58.3349 1.91778 412.662 -58.3349 1.91778 412.662
848 1 -60.0764 1.9125 414.531 -60.0764 1.9125 414.531
306 1 -41.5833 1.93481 403.896 -41.5833 1.93481 403.896
302 1 -43.3243 1.93134 405.763 -43.3243 1.93134 405.763
299 1 -45.0678 1.92844 407.631 -45.0678 1.92844 407.631
583 1 -46.8118 1.92442 409.499 -46.8118 1.92442 409.499
581 1 -48.5566 1.92055 411.365 -48.5566 1.92055 411.365
866 1 -50.3016 1.91741 413.231 -50.3016 1.91741 413.231
880 1 -42.2662 1.91519 413.796 -42.2662 1.91519 413.796
312 1 -37.6799 1.19338 405.824 -37.6799 1.19338 405.824
2 1 -62.4512 0.482978 401.743 -62.4512 0.482978 401.743
13 1 -55.2434 2.66693 403.259 -55.2434 2.66693 403.259
278 1 -57.0005 2.66943 405.129 -57.0005 2.66943 405.129
275 1 -58.754 2.67238 406.988 -58.754 2.67238 406.988
562 1 -60.4949 2.66486 408.858 -60.4949 2.66486 408.858
559 1 -62.2353 2.65799 410.729 -62.2353 2.65799 410.729
1166 1 -42.7234 3.3781 420.395 -42.7234 3.3781 420.395
889 1 -36.6202 1.17672 413.86 -36.6202 1.17672 413.86
28 1 -45.4808 2.68002 402.001 -45.4808 2.68002 402.001
296 1 -47.229 2.67522 403.835 -47.229 2.67522 403.835
292 1 -48.9705 2.67114 405.7 -48.9705 2.67114 405.7
289 1 -50.7131 2.6645 407.568 -50.7131 2.6645 407.568
574 1 -52.4594 2.66139 409.432 -52.4594 2.66139 409.432
572 1 -54.2053 2.65926 411.296 -54.2053 2.65926 411.296
856 1 -55.9485 2.65536 413.162 -55.9485 2.65536 413.162
303 1 -42.681 2.66459 408.13 -42.681 2.66459 408.13
587 1 -44.4247 2.66104 409.998 -44.4247 2.66104 409.998
584 1 -46.1689 2.65738 411.865 -46.1689 2.65738 411.865
870 1 -47.9136 2.65406 413.731 -47.9136 2.65406 413.731
6 1 -60.0342 1.21114 402.262 -60.0342 1.21114 402.262
270 1 -61.7892 1.20608 404.106 -61.7892 1.20608 404.106
267 1 -63.5222 1.19176 405.987 -63.5222 1.19176 405.987
890 1 -35.9768 1.90977 416.226 -35.9768 1.90977 416.226
18 1 -51.9896 1.1878 402.843 -51.9896 1.1878 402.843
284 1 -53.7361 1.18978 404.706 -53.7361 1.18978 404.706
281 1 -55.488 1.1898 406.565 -55.488 1.1898 406.565
567 1 -57.2373 1.19091 408.426 -57.2373 1.19091 408.426
564 1 -58.9797 1.18582 410.293 -58.9797 1.18582 410.293
561 1 -60.7206 1.17979 412.163 -60.7206 1.17979 412.163
844 1 -62.4622 1.17455 414.032 -62.4622 1.17455 414.032
33 1 -42.2411 1.19582 401.543 -42.2411 1.19582 401.543
30 1 -43.9711 1.19332 403.392 -43.9711 1.19332 403.392
298 1 -45.7114 1.19614 405.264 -45.7114 1.19614 405.264
295 1 -47.4551 1.19211 407.134 -47.4551 1.19211 407.134
580 1 -49.1992 1.18681 409 -49.1992 1.18681 409
577 1 -50.9445 1.18342 410.865 -50.9445 1.18342 410.865
862 1 -52.6896 1.18064 412.73 -52.6896 1.18064 412.73
590 1 -42.9094 1.18216 411.43 -42.9094 1.18216 411.43
876 1 -44.6536 1.17857 413.297 -44.6536 1.17857 413.297
1163 1 -44.239 0.429543 418.962 -44.239 0.429543 418.962
1153 1 -50.7571 3.37973 419.83 -50.7571 3.37973 419.83
311 1 -38.55 3.40616 406.762 -38.55 3.40616 406.762
42 1 -36.5968 0.456983 401.605 -36.5968 0.456983 401.605
1135 1 -62.0453 0.42479 419.702 -62.0453 0.42479 419.702
1171 1 -39.4642 1.90267 419.96 -39.4642 1.90267 419.96
1139 1 -59.6591 1.16248 420.201 -59.6591 1.16248 420.201
601 1 -36.392 2.65942 410.559 -36.392 2.65942 410.559
313 1 -36.805 3.41118 404.892 -36.805 3.41118 404.892
858 1 -54.4329 1.17672 414.596 -54.4329 1.17672 414.596
868 1 -48.7859 0.438739 414.664 -48.7859 0.438739 414.664
1147 1 -54.6596 4.121 417.897 -54.6596 4.121 417.897
843 1 -63.3332 3.38591 414.967 -63.3332 3.38591 414.967
593 1 -40.5223 1.91879 411.929 -40.5223 1.91879 411.929
308 1 -40.0658 0.45725 405.326 -40.0658 0.45725 405.326
861 1 -52.9172 4.12558 416.03 -52.9172 4.12558 416.03
1158 1 -47.4983 1.9049 419.396 -47.4983 1.9049 419.396
884 1 -39.879 2.65185 414.295 -39.879 2.65185 414.295
881 1 -41.623 2.64834 416.162 -41.623 2.64834 416.162
885 1 -39.2357 3.38497 416.661 -39.2357 3.38497 416.661
859 1 -53.7885 1.90961 416.964 -53.7885 1.90961 416.964
596 1 -38.7788 1.92254 410.061 -38.7788 1.92254 410.061
879 1 -42.495 0.432913 417.095 -42.495 0.432913 417.095
1172 1 -38.5923 4.11813 419.027 -38.5923 4.11813 419.027
1154 1 -49.8857 1.1681 418.897 -49.8857 1.1681 418.897
887 1 -38.3638 1.17303 415.727 -38.3638 1.17303 415.727
597 1 -38.1354 2.65553 412.427 -38.1354 2.65553 412.427
1161 1 -45.7546 1.90845 417.529 -45.7546 1.90845 417.529
1138 1 -60.3032 0.429352 417.833 -60.3032 0.429352 417.833
1149 1 -53.1441 2.64246 419.331 -53.1441 2.64246 419.331
41 1 -37.4484 2.6723 402.544 -37.4484 2.6723 402.544
888 1 -37.492 3.38857 414.793 -37.492 3.38857 414.793
1165 1 -43.367 2.64496 418.029 -43.367 2.64496 418.029
1141 1 -57.917 1.16716 418.332 -57.917 1.16716 418.332
1145 1 -55.5307 1.9049 418.831 -55.5307 1.9049 418.831
600 1 -37.0359 1.92645 408.193 -37.0359 1.92645 408.193
1148 1 -54.0152 0.426435 420.265 -54.0152 0.426435 420.265
882 1 -41.3943 4.13068 412.862 -41.3943 4.13068 412.862
1157 1 -48.37 4.1167 420.33 -48.37 4.1167 420.33
1144 1 -56.4017 4.11627 419.766 -56.4017 4.11627 419.766
602 1 -35.5203 0.447844 409.625 -35.5203 0.447844 409.625
1131 1 -63.7876 0.42044 421.571 -63.7876 0.42044 421.571
1755 1 -36.0178 2.62322 428.492 -36.0178 2.62322 428.492
1460 1 -40.5642 2.63229 424.194 -40.5642 2.63229 424.194
2308 1 -50.3766 3.3412 437.767 -50.3766 3.3412 437.767
2316 1 -45.3762 1.8708 435.464 -45.3762 1.8708 435.464
2312 1 -47.99 4.07833 438.266 -47.99 4.07833 438.266
1464 1 -38.177 3.36894 424.693 -38.177 3.36894 424.693
1461 1 -39.6924 0.420338 423.26 -39.6924 0.420338 423.26
2039 1 -38.86 3.34872 434.594 -38.86 3.34872 434.594
2613 1 -40.83 1.86201 439.762 -40.83 1.86201 439.762
1467 1 -35.7898 4.10562 425.192 -35.7898 4.10562 425.192
2603 1 -46.4746 2.59961 439.699 -46.4746 2.59961 439.699
1443 1 -50.1128 4.11256 422.197 -50.1128 4.11256 422.197
1748 1 -39.9203 3.36533 426.56 -39.9203 3.36533 426.56
2023 1 -47.7629 1.13373 434.965 -47.7629 1.13373 434.965
2310 1 -48.8612 1.86252 439.2 -48.8612 1.86252 439.2
1151 1 -51.6284 1.16382 420.764 -51.6284 1.16382 420.764
2303 1 -53.6343 0.38817 438.203 -53.6343 0.38817 438.203
2299 1 -56.0208 4.07834 437.704 -56.0208 4.07834 437.704
2033 1 -42.1182 0.396094 435.029 -42.1182 0.396094 435.029
1433 1 -55.7574 0.421811 422.133 -55.7574 0.421811 422.133
1430 1 -57.4996 0.417257 424.001 -57.4996 0.417257 424.001
1426 1 -59.2419 0.412803 425.869 -59.2419 0.412803 425.869
1713 1 -60.9842 0.408446 427.738 -60.9842 0.408446 427.738
1710 1 -62.7265 0.404169 429.606 -62.7265 0.404169 429.606
2330 1 -36.7005 2.60298 438.393 -36.7005 2.60298 438.393
1160 1 -45.9826 0.425989 420.829 -45.9826 0.425989 420.829
1447 1 -47.7258 0.422106 422.696 -47.7258 0.422106 422.696
1444 1 -49.4685 0.417942 424.564 -49.4685 0.417942 424.564
1730 1 -51.211 0.413629 426.432 -51.211 0.413629 426.432
1727 1 -52.9534 0.409268 428.3 -52.9534 0.409268 428.3
1724 1 -54.6958 0.404912 430.168 -54.6958 0.404912 430.168
2008 1 -56.4381 0.400583 432.036 -56.4381 0.400583 432.036
2006 1 -58.1804 0.396286 433.904 -58.1804 0.396286 433.904
1458 1 -41.4358 0.416744 425.127 -41.4358 0.416744 425.127
1743 1 -43.179 0.412977 426.995 -43.179 0.412977 426.995
1740 1 -44.9219 0.409032 428.863 -44.9219 0.409032 428.863
2026 1 -46.6645 0.404953 430.73 -46.6645 0.404953 430.73
2022 1 -48.4071 0.400794 432.598 -48.4071 0.400794 432.598
2019 1 -50.1495 0.396594 434.467 -50.1495 0.396594 434.467
2309 1 -49.5054 1.12956 436.833 -49.5054 1.12956 436.833
1137 1 -60.5302 3.37394 421.135 -60.5302 3.37394 421.135
1421 1 -62.2724 3.36952 423.004 -62.2724 3.36952 423.004
1439 1 -52.4997 3.37532 421.698 -52.4997 3.37532 421.698
1435 1 -54.242 3.3708 423.566 -54.242 3.3708 423.566
1432 1 -55.9842 3.36629 425.434 -55.9842 3.36629 425.434
1719 1 -57.7265 3.36185 427.302 -57.7265 3.36185 427.302
1716 1 -59.4688 3.35749 429.171 -59.4688 3.35749 429.171
2001 1 -61.2111 3.35319 431.039 -61.2111 3.35319 431.039
1998 1 -62.9535 3.34894 432.907 -62.9535 3.34894 432.907
2323 1 -40.6027 3.34478 436.462 -40.6027 3.34478 436.462
1453 1 -44.467 3.37453 422.262 -44.467 3.37453 422.262
1450 1 -46.2101 3.3707 424.129 -46.2101 3.3707 424.129
1446 1 -47.9529 3.36663 425.997 -47.9529 3.36663 425.997
1732 1 -49.6955 3.36241 427.865 -49.6955 3.36241 427.865
1729 1 -51.438 3.35812 429.733 -51.438 3.35812 429.733
2014 1 -53.1804 3.35382 431.601 -53.1804 3.35382 431.601
2011 1 -54.9227 3.34953 433.469 -54.9227 3.34953 433.469
1745 1 -41.6634 3.36158 428.428 -41.6634 3.36158 428.428
1742 1 -43.4063 3.35767 430.295 -43.4063 3.35767 430.295
2028 1 -45.1491 3.35364 432.163 -45.1491 3.35364 432.163
2025 1 -46.8916 3.34953 434.031 -46.8916 3.34953 434.031
1427 1 -59.0149 1.89562 422.568 -59.0149 1.89562 422.568
1424 1 -60.7572 1.89117 424.436 -60.7572 1.89117 424.436
1711 1 -62.4995 1.88684 426.305 -62.4995 1.88684 426.305
2322 1 -41.4741 1.12905 437.396 -41.4741 1.12905 437.396
1750 1 -38.4048 1.88648 427.993 -38.4048 1.88648 427.993
1155 1 -49.2414 1.90094 421.263 -49.2414 1.90094 421.263
1441 1 -50.9841 1.89666 423.131 -50.9841 1.89666 423.131
1438 1 -52.7265 1.89225 424.999 -52.7265 1.89225 424.999
1725 1 -54.4688 1.88781 426.867 -54.4688 1.88781 426.867
1722 1 -56.2111 1.88341 428.735 -56.2111 1.88341 428.735
1718 1 -57.9535 1.87905 430.603 -57.9535 1.87905 430.603
2003 1 -59.6958 1.87475 432.472 -59.6958 1.87475 432.472
2000 1 -61.4381 1.87048 434.34 -61.4381 1.87048 434.34
1459 1 -41.2079 1.89921 421.828 -41.2079 1.89921 421.828
1455 1 -42.9514 1.89563 423.695 -42.9514 1.89563 423.695
1452 1 -44.6945 1.89184 425.562 -44.6945 1.89184 425.562
1737 1 -46.4374 1.88784 427.43 -46.4374 1.88784 427.43
1735 1 -48.18 1.8837 429.298 -48.18 1.8837 429.298
2020 1 -49.9225 1.87948 431.166 -49.9225 1.87948 431.166
2017 1 -51.665 1.87523 433.034 -51.665 1.87523 433.034
2034 1 -41.8909 1.87886 431.728 -41.8909 1.87886 431.728
2031 1 -43.6336 1.87487 433.596 -43.6336 1.87487 433.596
2029 1 -44.5049 4.08657 434.53 -44.5049 4.08657 434.53
1146 1 -54.8863 2.63784 421.199 -54.8863 2.63784 421.199
1431 1 -56.6285 2.63325 423.067 -56.6285 2.63325 423.067
1428 1 -58.3707 2.62874 424.935 -58.3707 2.62874 424.935
1715 1 -60.113 2.62434 426.804 -60.113 2.62434 426.804
1712 1 -61.8553 2.62003 428.672 -61.8553 2.62003 428.672
1708 1 -63.5977 2.61578 430.54 -63.5977 2.61578 430.54
1747 1 -40.1479 1.88274 429.861 -40.1479 1.88274 429.861
1449 1 -46.8543 2.63782 421.763 -46.8543 2.63782 421.763
1445 1 -48.5972 2.63378 423.63 -48.5972 2.63378 423.63
1442 1 -50.3398 2.62952 425.498 -50.3398 2.62952 425.498
1728 1 -52.0822 2.62518 427.366 -52.0822 2.62518 427.366
1726 1 -53.8246 2.62081 429.234 -53.8246 2.62081 429.234
2010 1 -55.5669 2.61647 431.102 -55.5669 2.61647 431.102
2007 1 -57.3093 2.61216 432.97 -57.3093 2.61216 432.97
1456 1 -42.3074 2.62861 426.061 -42.3074 2.62861 426.061
1741 1 -44.0504 2.62475 427.929 -44.0504 2.62475 427.929
1738 1 -45.7932 2.62073 429.796 -45.7932 2.62073 429.796
2024 1 -47.5358 2.61661 431.664 -47.5358 2.61661 431.664
2021 1 -49.2783 2.61242 433.532 -49.2783 2.61242 433.532
2035 1 -41.2468 2.61181 434.095 -41.2468 2.61181 434.095
1754 1 -36.6615 1.89011 426.126 -36.6615 1.89011 426.126
1423 1 -61.4013 1.15798 422.069 -61.4013 1.15798 422.069
1420 1 -63.1436 1.15365 423.938 -63.1436 1.15365 423.938
2044 1 -35.6016 1.8738 434.159 -35.6016 1.8738 434.159
1437 1 -53.3708 1.15933 422.632 -53.3708 1.15933 422.632
1434 1 -55.1131 1.15481 424.5 -55.1131 1.15481 424.5
1721 1 -56.8554 1.15034 426.368 -56.8554 1.15034 426.368
1717 1 -58.5977 1.14594 428.236 -58.5977 1.14594 428.236
1714 1 -60.34 1.1416 430.105 -60.34 1.1416 430.105
1999 1 -62.0823 1.13733 431.973 -62.0823 1.13733 431.973
1997 1 -63.8246 1.1331 433.841 -63.8246 1.1331 433.841
1164 1 -43.5953 1.16262 421.328 -43.5953 1.16262 421.328
1451 1 -45.3386 1.15892 423.196 -45.3386 1.15892 423.196
1448 1 -47.0816 1.15497 425.063 -47.0816 1.15497 425.063
1734 1 -48.8242 1.15081 426.931 -48.8242 1.15081 426.931
1731 1 -50.5667 1.14654 428.799 -50.5667 1.14654 428.799
2016 1 -52.3092 1.14224 430.667 -52.3092 1.14224 430.667
2012 1 -54.0515 1.13794 432.535 -54.0515 1.13794 432.535
2009 1 -55.7939 1.13366 434.403 -55.7939 1.13366 434.403
1746 1 -40.7919 1.14975 427.494 -40.7919 1.14975 427.494
1744 1 -42.5349 1.14592 429.362 -42.5349 1.14592 429.362
2030 1 -44.2777 1.14194 431.229 -44.2777 1.14194 431.229
2027 1 -46.0204 1.13787 433.097 -46.0204 1.13787 433.097
2325 1 -39.7314 1.13303 435.528 -39.7314 1.13303 435.528
1749 1 -39.2764 4.09835 428.927 -39.2764 4.09835 428.927
1425 1 -59.886 4.1071 423.502 -59.886 4.1071 423.502
1736 1 -47.3087 4.09951 428.364 -47.3087 4.09951 428.364
1142 1 -57.2728 1.9002 420.7 -57.2728 1.9002 420.7
1720 1 -57.0823 4.09495 429.669 -57.0823 4.09495 429.669
2005 1 -58.8246 4.09062 431.538 -58.8246 4.09062 431.538
2002 1 -60.5669 4.08633 433.406 -60.5669 4.08633 433.406
1169 1 -40.3361 4.11467 420.894 -40.3361 4.11467 420.894
1723 1 -55.34 4.09933 427.801 -55.34 4.09933 427.801
1440 1 -51.8553 4.10819 424.065 -51.8553 4.10819 424.065
1733 1 -49.0513 4.09532 430.232 -49.0513 4.09532 430.232
2018 1 -50.7937 4.09108 432.1 -50.7937 4.09108 432.1
2015 1 -52.5361 4.08683 433.968 -52.5361 4.08683 433.968
2036 1 -41.0194 4.09454 430.794 -41.0194 4.09454 430.794
2032 1 -42.7622 4.0906 432.662 -42.7622 4.0906 432.662
2326 1 -39.0873 1.86602 437.894 -39.0873 1.86602 437.894
1752 1 -37.5332 4.10203 427.059 -37.5332 4.10203 427.059
1457 1 -42.0797 4.11117 422.761 -42.0797 4.11117 422.761
2043 1 -36.2455 1.14073 431.792 -36.2455 1.14073 431.792
2286 1 -63.1804 1.86624 436.208 -63.1804 1.86624 436.208
2319 1 -43.2167 1.12499 439.264 -43.2167 1.12499 439.264
1436 1 -53.5977 4.10375 425.933 -53.5977 4.10375 425.933
1422 1 -61.6283 4.10272 425.371 -61.6283 4.10272 425.371
1173 1 -37.9488 0.423837 421.393 -37.9488 0.423837 421.393
2293 1 -59.2785 1.12515 438.14 -59.2785 1.12515 438.14
2289 1 -61.665 0.387771 437.641 -61.665 0.387771 437.641
2295 1 -57.7632 4.07412 439.572 -57.7632 4.07412 439.572
1465 1 -37.3052 1.15698 423.759 -37.3052 1.15698 423.759
2315 1 -45.6033 0.387951 438.765 -45.6033 0.387951 438.765
2331 1 -36.4731 4.08561 435.093 -36.4731 4.08561 435.093
2297 1 -56.892 1.8625 438.638 -56.892 1.8625 438.638
2324 1 -39.9587 4.07775 438.828 -39.9587 4.07775 438.828
2306 1 -51.2478 1.12538 438.702 -51.2478 1.12538 438.702
2285 1 -63.4073 0.383531 439.509 -63.4073 0.383531 439.509
1462 1 -39.0487 1.15342 425.627 -39.0487 1.15342 425.627
1751 1 -37.761 2.61953 430.36 -37.761 2.61953 430.36
2329 1 -37.3445 1.86995 436.027 -37.3445 1.86995 436.027
2042 1 -37.117 3.35257 432.726 -37.117 3.35257 432.726
2041 1 -37.9885 1.13693 433.66 -37.9885 1.13693 433.66
2593 1 -52.119 3.33702 439.636 -52.119 3.33702 439.636
2328 1 -37.5719 0.38728 439.327 -37.5719 0.38728 439.327
2301 1 -54.5055 2.5998 439.137 -54.5055 2.5998 439.137
1466 1 -36.4335 3.37247 422.826 -36.4335 3.37247 422.826
2298 1 -56.665 3.34525 435.337 -56.665 3.34525 435.337
2321 1 -42.3454 3.34075 438.33 -42.3454 3.34075 438.33
2313 1 -47.1187 1.86667 437.332 -47.1187 1.86667 437.332
2294 1 -58.4074 3.341 437.206 -58.4074 3.341 437.206
2304 1 -52.7631 2.604 437.269 -52.7631 2.604 437.269
2300 1 -55.1497 1.86673 436.77 -55.1497 1.86673 436.77
2290 1 -60.7939 2.60362 436.707 -60.7939 2.60362 436.707
2318 1 -43.8608 0.392051 436.897 -43.8608 0.392051 436.897
2327 1 -38.2159 4.08172 436.96 -38.2159 4.08172 436.96
2004 1 -59.0516 2.60788 434.839 -59.0516 2.60788 434.839
2013 1 -53.4073 1.87097 434.902 -53.4073 1.87097 434.902
2288 1 -62.3092 4.08208 435.274 -62.3092 4.08208 435.274
2037 1 -40.3754 0.400056 433.161 -40.3754 0.400056 433.161
1739 1 -45.566 4.10359 426.496 -45.566 4.10359 426.496
1753 1 -36.8894 0.407657 429.426 -36.8894 0.407657 429.426
2307 1 -51.0208 2.60821 435.401 -51.0208 2.60821 435.401
2314 1 -46.2475 4.08247 436.398 -46.2475 4.08247 436.398
2040 1 -38.6325 0.403914 431.293 -38.6325 0.403914 431.293
2320 1 -42.9895 2.60781 435.963 -42.9895 2.60781 435.963
2292 1 -59.9227 0.392018 435.773 -59.9227 0.392018 435.773
2311 1 -48.6341 3.34538 435.899 -48.6341 3.34538 435.899
2302 1 -54.2785 4.08258 435.836 -54.2785 4.08258 435.836
2296 1 -57.5362 1.1294 436.271 -57.5362 1.1294 436.271
1463 1 -38.8206 2.63582 422.327 -38.8206 2.63582 422.327
2287 1 -62.5362 2.59938 438.575 -62.5362 2.59938 438.575
2291 1 -60.1496 3.33676 439.074 -60.1496 3.33676 439.074
2317 1 -44.7321 2.60373 437.831 -44.7321 2.60373 437.831
2038 1 -39.504 2.61573 432.227 -39.504 2.61573 432.227
2305 1 -51.892 0.392381 436.335 -51.892 0.392381 436.335
2332 1 -35.8291 0.391208 437.459 -35.8291 0.391208 437.459
1709 1 -63.3707 4.09844 427.239 -63.3707 4.09844 427.239
1468 1 -35.5617 1.16051 421.892 -35.5617 1.16051 421.892
1454 1 -43.823 4.10749 424.628 -43.823 4.10749 424.628
1429 1 -58.1438 4.11162 421.634 -58.1438 4.11162 421.634
1133 1 -62.9165 2.63632 420.636 -62.9165 2.63632 420.636
1175 1 -37.077 2.63931 420.459 -37.077 2.63931 420.459
2616 1 -38.6705 1.11627 443.562 -38.6705 1.11627 443.562
2901 1 -40.413 1.11217 445.43 -40.413 1.11217 445.43
2907 1 -37.1551 4.06504 444.995 -37.1551 4.06504 444.995
3194 1 -38.2534 0.366474 449.229 -38.2534 0.366474 449.229
2587 1 -55.3767 0.383971 440.071 -55.3767 0.383971 440.071
2597 1 -49.7324 4.07417 440.134 -49.7324 4.07417 440.134
2584 1 -57.119 0.379786 441.939 -57.119 0.379786 441.939
2581 1 -58.8612 0.375606 443.808 -58.8612 0.375606 443.808
2868 1 -60.6035 0.371414 445.676 -60.6035 0.371414 445.676
2865 1 -62.3456 0.367185 447.544 -62.3456 0.367185 447.544
2601 1 -47.3458 0.383818 440.633 -47.3458 0.383818 440.633
2598 1 -49.0882 0.379671 442.501 -49.0882 0.379671 442.501
2885 1 -50.8306 0.375533 444.369 -50.8306 0.375533 444.369
2882 1 -52.573 0.371422 446.238 -52.573 0.371422 446.238
2879 1 -54.3153 0.367345 448.106 -54.3153 0.367345 448.106
2612 1 -41.0571 0.379208 443.063 -41.0571 0.379208 443.063
2898 1 -42.7996 0.37509 444.931 -42.7996 0.37509 444.931
2895 1 -44.542 0.370942 446.799 -44.542 0.370942 446.799
3180 1 -46.2843 0.366794 448.667 -46.2843 0.366794 448.667
2576 1 -61.8919 3.33252 440.942 -61.8919 3.33252 440.942
2574 1 -63.6341 3.32827 442.81 -63.6341 3.32827 442.81
2589 1 -53.8613 3.33285 441.504 -53.8613 3.33285 441.504
2586 1 -55.6036 3.32869 443.372 -55.6036 3.32869 443.372
2874 1 -57.3459 3.32456 445.241 -57.3459 3.32456 445.241
2871 1 -59.0882 3.32042 447.109 -59.0882 3.32042 447.109
3155 1 -60.8304 3.31626 448.977 -60.8304 3.31626 448.977
2607 1 -44.0879 3.33667 440.198 -44.0879 3.33667 440.198
2604 1 -45.8304 3.33255 442.066 -45.8304 3.33255 442.066
2600 1 -47.5728 3.3284 443.934 -47.5728 3.3284 443.934
2887 1 -49.3152 3.32426 445.802 -49.3152 3.32426 445.802
2884 1 -51.0576 3.32015 447.67 -51.0576 3.32015 447.67
3168 1 -52.8 3.31607 449.539 -52.8 3.31607 449.539
2900 1 -41.2842 3.32383 446.364 -41.2842 3.32383 446.364
2897 1 -43.0265 3.31968 448.232 -43.0265 3.31968 448.232
2582 1 -58.6343 1.85829 440.507 -58.6343 1.85829 440.507
2579 1 -60.3766 1.85407 442.375 -60.3766 1.85407 442.375
2866 1 -62.1188 1.84984 444.243 -62.1188 1.84984 444.243
2578 1 -61.0208 1.12091 440.008 -61.0208 1.12091 440.008
2595 1 -50.6036 1.85836 441.068 -50.6036 1.85836 441.068
2592 1 -52.346 1.85422 442.937 -52.346 1.85422 442.937
2880 1 -54.0883 1.85009 444.805 -54.0883 1.85009 444.805
2877 1 -55.8307 1.84599 446.673 -55.8307 1.84599 446.673
2873 1 -57.573 1.84191 448.542 -57.573 1.84191 448.542
2609 1 -42.5725 1.85793 441.63 -42.5725 1.85793 441.63
2606 1 -44.315 1.85381 443.498 -44.315 1.85381 443.498
2892 1 -46.0574 1.84967 445.367 -46.0574 1.84967 445.367
2890 1 -47.7998 1.84553 447.235 -47.7998 1.84553 447.235
3174 1 -49.5421 1.84141 449.103 -49.5421 1.84141 449.103
2618 1 -37.7992 3.33202 442.628 -37.7992 3.33202 442.628
2585 1 -56.2478 2.5956 441.005 -56.2478 2.5956 441.005
2583 1 -57.9901 2.59142 442.874 -57.9901 2.59142 442.874
2870 1 -59.7324 2.58724 444.742 -59.7324 2.58724 444.742
2867 1 -61.4746 2.58303 446.61 -61.4746 2.58303 446.61
2863 1 -63.2167 2.57877 448.479 -63.2167 2.57877 448.479
2599 1 -48.217 2.59547 441.567 -48.217 2.59547 441.567
2596 1 -49.9594 2.59133 443.435 -49.9594 2.59133 443.435
2883 1 -51.7018 2.5872 445.304 -51.7018 2.5872 445.304
2881 1 -53.4442 2.58311 447.172 -53.4442 2.58311 447.172
3164 1 -55.1865 2.57904 449.04 -55.1865 2.57904 449.04
2610 1 -41.9284 2.59088 443.997 -41.9284 2.59088 443.997
2896 1 -43.6708 2.58674 445.865 -43.6708 2.58674 445.865
2893 1 -45.4132 2.58259 447.733 -45.4132 2.58259 447.733
3178 1 -47.1555 2.57846 449.602 -47.1555 2.57846 449.602
2575 1 -62.763 1.11667 441.876 -62.763 1.11667 441.876
2591 1 -52.9901 1.1212 440.57 -52.9901 1.1212 440.57
2588 1 -54.7325 1.11704 442.438 -54.7325 1.11704 442.438
2876 1 -56.4748 1.1129 444.306 -56.4748 1.1129 444.306
2872 1 -58.2171 1.10877 446.175 -58.2171 1.10877 446.175
2869 1 -59.9593 1.10462 448.043 -59.9593 1.10462 448.043
2605 1 -44.9592 1.12088 441.132 -44.9592 1.12088 441.132
2602 1 -46.7016 1.11675 443 -46.7016 1.11675 443
2889 1 -48.444 1.11261 444.868 -48.444 1.11261 444.868
2886 1 -50.1864 1.10848 446.736 -50.1864 1.10848 446.736
3170 1 -51.9288 1.10438 448.605 -51.9288 1.10438 448.605
2899 1 -42.1554 1.10803 447.298 -42.1554 1.10803 447.298
3184 1 -43.8977 1.10388 449.166 -43.8977 1.10388 449.166
2580 1 -59.5054 4.0699 441.441 -59.5054 4.0699 441.441
2577 1 -61.2477 4.06568 443.309 -61.2477 4.06568 443.309
2864 1 -62.9899 4.06144 445.177 -62.9899 4.06144 445.177
2862 1 -63.8609 1.84557 446.111 -63.8609 1.84557 446.111
2594 1 -51.4748 4.07001 442.003 -51.4748 4.07001 442.003
2590 1 -53.2171 4.06588 443.871 -53.2171 4.06588 443.871
2878 1 -54.9595 4.06177 445.739 -54.9595 4.06177 445.739
2875 1 -56.7018 4.05768 447.608 -56.7018 4.05768 447.608
3159 1 -58.4441 4.0536 449.476 -58.4441 4.0536 449.476
2611 1 -41.7013 4.0737 440.696 -41.7013 4.0737 440.696
2608 1 -43.4438 4.0696 442.564 -43.4438 4.0696 442.564
2894 1 -45.1862 4.06547 444.432 -45.1862 4.06547 444.432
2891 1 -46.9286 4.06132 446.301 -46.9286 4.06132 446.301
2888 1 -48.671 4.05719 448.169 -48.671 4.05719 448.169
2904 1 -38.8976 4.06094 446.862 -38.8976 4.06094 446.862
2621 1 -36.0565 3.33602 440.76 -36.0565 3.33602 440.76
2617 1 -38.4433 2.59901 440.261 -38.4433 2.59901 440.261
2614 1 -40.1859 2.59498 442.129 -40.1859 2.59498 442.129
2908 1 -36.511 0.37061 447.361 -36.511 0.37061 447.361
2619 1 -36.9279 1.1203 441.694 -36.9279 1.1203 441.694
2906 1 -37.3822 2.58227 448.295 -37.3822 2.58227 448.295
2905 1 -38.0264 1.84927 445.928 -38.0264 1.84927 445.928
2620 1 -36.2838 1.85333 444.061 -36.2838 1.85333 444.061
3190 1 -40.64 4.05679 448.731 -40.64 4.05679 448.731
2902 1 -39.7688 1.84514 447.796 -39.7688 1.84514 447.796
2903 1 -39.5418 3.32795 444.496 -39.5418 3.32795 444.496
2615 1 -39.3146 0.383276 441.195 -39.3146 0.383276 441.195
2909 1 -35.6398 2.58638 446.427 -35.6398 2.58638 446.427
14 1 -55.0292 4.18492 400.09 -55.0292 4.18492 400.09
7 1 -59.7421 2.67866 399.179 -59.7421 2.67866 399.179
25 1 -46.997 4.17492 400.564 -46.997 4.17492 400.564
38 1 -38.9602 4.13403 401.079 -38.9602 4.13403 401.079
23 1 -48.7424 4.15509 402.426 -48.7424 4.15509 402.426
287 1 -52.227 4.13892 406.131 -52.227 4.13892 406.131
878 1 -43.1383 4.12717 414.729 -43.1383 4.12717 414.729
579 1 -49.4291 4.13272 412.298 -49.4291 4.13272 412.298
585 1 -45.9398 4.14023 408.566 -45.9398 4.14023 408.566
290 1 -50.4869 4.14362 404.264 -50.4869 4.14362 404.264
11 1 -56.7655 4.1358 401.86 -56.7655 4.1358 401.86
595 1 -39.6505 4.13438 410.995 -39.6505 4.13438 410.995
1134 1 -62.6893 4.11906 417.334 -62.6893 4.11906 417.334
283 1 -53.9739 4.13854 407.997 -53.9739 4.13854 407.997
582 1 -47.6841 4.13613 410.432 -47.6841 4.13613 410.432
276 1 -58.5209 4.15171 403.71 -58.5209 4.15171 403.71
569 1 -55.721 4.13808 409.86 -55.721 4.13808 409.86
847 1 -60.9473 4.12374 415.465 -60.9473 4.12374 415.465
556 1 -63.75 4.13578 409.295 -63.75 4.13578 409.295
272 1 -60.2746 4.15405 405.553 -60.2746 4.15405 405.553
3 1 -61.5658 2.69348 400.858 -61.5658 2.69348 400.858
35 1 -40.705 4.15358 402.952 -40.705 4.15358 402.952
598 1 -37.907 4.13841 409.127 -37.907 4.13841 409.127
850 1 -59.2055 4.12882 413.596 -59.2055 4.12882 413.596
304 1 -42.4489 4.14907 404.831 -42.4489 4.14907 404.831
301 1 -44.195 4.14458 406.7 -44.195 4.14458 406.7