ITEM: TIMESTEP
0
ITEM: NUMBER OF ATOMS
4630
ITEM: BOX BOUNDS xy xz yz pp pp pp
-5.8040988501800001e+01 1.0106002035000000e+02 0.0000000000000000e+00
0.0000000000000000e+00 4.4274527100805940e+00 0.0000000000000000e+00
3.8000000000000000e+02 5.0000000000000000e+02 0.0000000000000000e+00
ITEM: ATOMS id type x y z xu yu zu
27 1 -42.7277 2.6279 398.365 -42.7277 2.6279 398.365
36 1 -37.2926 1.87858 398.213 -37.2926 1.87858 398.213
31 1 -40.3479 3.29957 398.712 -40.3479 3.29957 398.712
22 1 -45.8022 4.05552 398.901 -45.8022 4.05552 398.901
20 1 -46.572 1.84043 399.808 -46.572 1.84043 399.808
40 1 -34.9157 2.55317 398.566 -34.9157 2.55317 398.566
34 1 -38.0453 4.07992 399.109 -38.0453 4.07992 399.109
17 1 -48.8799 1.07846 399.423 -48.8799 1.07846 399.423
9 1 -54.2609 1.75708 399.549 -54.2609 1.75708 399.549
43 1 -32.6152 3.33463 398.966 -32.6152 3.33463 398.966
12 1 -51.9953 2.60454 399.975 -51.9953 2.60454 399.975
5 1 -56.6338 1.1337 399.194 -56.6338 1.1337 399.194
29 1 -41.1445 1.07468 399.618 -41.1445 1.07468 399.618
853 1 -53.029 3.04405 414.525 -53.029 3.04405 414.525
873 1 -42.2092 1.565 414.21 -42.2092 1.565 414.21
865 1 -46.1045 0.800257 415.776 -46.1045 0.800257 415.776
1174 1 -33.7632 2.24215 416.882 -33.7632 2.24215 416.882
883 1 -36.7958 0.823832 414.058 -36.7958 0.823832 414.058
863 1 -47.6206 2.30547 414.367 -47.6206 2.30547 414.367
315 1 -32.6863 1.7701 402.326 -32.6863 1.7701 402.326
307 1 -37.3857 3.21189 404.87 -37.3857 3.21189 404.87
1150 1 -47.6905 0.761918 417.761 -47.6905 0.761918 417.761
855 1 -51.5138 1.53904 415.935 -51.5138 1.53904 415.935
310 1 -35.7985 3.24508 402.894 -35.7985 3.24508 402.894
871 1 -43.0023 3.76018 415.202 -43.0023 3.76018 415.202
16 1 -49.6629 3.2821 400.334 -49.6629 3.2821 400.334
309 1 -35.8646 1.70686 406.28 -35.8646 1.70686 406.28
1156 1 -44.5888 3.72258 417.186 -44.5888 3.72258 417.186
867 1 -45.3116 3.03288 414.784 -45.3116 3.03288 414.784
1159 1 -42.28 0.0228073 417.604 -42.28 4.45026 417.604
1168 1 -36.8675 3.71038 417.451 -36.8675 3.71038 417.451
1170 1 -36.0734 1.51487 416.461 -36.0734 1.51487 416.461
594 1 -36.658 3.90379 407.271 -36.658 3.90379 407.271
37 1 -36.5198 2.54309 400.503 -36.5198 2.54309 400.503
851 1 -53.8212 0.810974 415.518 -53.8212 0.810974 415.518
857 1 -50.7213 3.77214 414.942 -50.7213 3.77214 414.942
592 1 -37.4512 1.67281 408.261 -37.4512 1.67281 408.261
849 1 -54.6135 3.00517 416.511 -54.6135 3.00517 416.511
877 1 -39.8994 2.29222 414.629 -39.8994 2.29222 414.629
1143 1 -52.3063 3.73325 416.928 -52.3063 3.73325 416.928
1140 1 -53.8915 3.69369 418.913 -53.8915 3.69369 418.913
845 1 -56.9204 2.2775 416.095 -56.9204 2.2775 416.095
875 1 -40.6929 0.0600928 415.621 -40.6929 4.48755 415.621
886 1 -35.2083 0.859495 412.077 -35.2083 0.859495 412.077
891 1 -32.1029 3.81714 411.509 -32.1029 3.81714 411.509
39 1 -35.0096 1.0452 401.9 -35.0096 1.0452 401.9
1177 1 -32.2475 0.737739 418.294 -32.2475 0.737739 418.294
1167 1 -37.6616 1.47827 418.442 -37.6616 1.47827 418.442
8 1 -55.0799 4.02525 400.568 -55.0799 4.02525 400.568
869 1 -43.7956 1.52774 416.194 -43.7956 1.52774 416.194
1136 1 -56.1983 2.96544 418.497 -56.1983 2.96544 418.497
1162 1 -40.7648 2.94554 419.014 -40.7648 2.94554 419.014
15 1 -50.4638 1.06578 401.369 -50.4638 1.06578 401.369
280 1 -52.0432 1.03637 403.349 -52.0432 1.03637 403.349
277 1 -53.6267 1.01236 405.329 -53.6267 1.01236 405.329
273 1 -55.204 0.975769 407.317 -55.204 0.975769 407.317
560 1 -56.7853 0.939377 409.304 -56.7853 0.939377 409.304
557 1 100.733 0.902115 411.29 -58.368 0.902115 411.29
26 1 -42.7377 1.06325 401.613 -42.7377 1.06325 401.613
294 1 -44.3242 1.03482 403.61 -44.3242 1.03482 403.61
291 1 -45.9072 0.999097 405.595 -45.9072 0.999097 405.595
576 1 -47.4887 0.961882 407.579 -47.4887 0.961882 407.579
573 1 -49.0709 0.92516 409.562 -49.0709 0.92516 409.562
570 1 -50.6534 0.887613 411.547 -50.6534 0.887613 411.547
854 1 -52.2369 0.849506 413.532 -52.2369 0.849506 413.532
305 1 -38.178 0.981353 405.859 -38.178 0.981353 405.859
589 1 -39.7631 0.9465 407.841 -39.7631 0.9465 407.841
586 1 -41.3481 0.91093 409.824 -41.3481 0.91093 409.824
872 1 -42.9333 0.874725 411.808 -42.9333 0.874725 411.808
599 1 -33.6207 0.894345 410.096 -33.6207 0.894345 410.096
4 1 -56.6761 4.03553 402.494 -56.6761 4.03553 402.494
268 1 100.863 3.99015 404.503 -58.2378 3.99015 404.503
1152 1 -46.8975 2.9949 416.769 -46.8975 2.9949 416.769
19 1 -47.3745 4.02659 400.808 -47.3745 4.02659 400.808
286 1 -48.9493 3.99235 402.762 -48.9493 3.99235 402.762
282 1 -50.5242 3.96094 404.751 -50.5242 3.96094 404.751
279 1 -52.1059 3.93142 406.737 -52.1059 3.93142 406.737
565 1 -53.6861 3.89632 408.725 -53.6861 3.89632 408.725
563 1 -55.2684 3.85985 410.712 -55.2684 3.85985 410.712
846 1 -56.8518 3.82256 412.699 -56.8518 3.82256 412.699
32 1 -39.6364 4.0246 401.07 -39.6364 4.0246 401.07
300 1 -41.2217 3.99163 403.042 -41.2217 3.99163 403.042
297 1 -42.8041 3.9568 405.022 -42.8041 3.9568 405.022
293 1 -44.3868 3.92158 407.005 -44.3868 3.92158 407.005
578 1 -45.9697 3.8852 408.989 -45.9697 3.8852 408.989
575 1 -47.5532 3.84827 410.973 -47.5532 3.84827 410.973
860 1 -49.137 3.81053 412.957 -49.137 3.81053 412.957
591 1 -38.2442 3.86901 409.253 -38.2442 3.86901 409.253
588 1 -39.8301 3.83339 411.235 -39.8301 3.83339 411.235
874 1 -41.4161 3.7971 413.218 -41.4161 3.7971 413.218
10 1 -53.5682 2.53434 401.945 -53.5682 2.53434 401.945
274 1 -55.152 2.52413 403.916 -55.152 2.52413 403.916
271 1 -56.7222 2.48336 405.909 -56.7222 2.48336 405.909
558 1 100.798 2.44681 407.895 -58.3027 2.44681 407.895
24 1 -44.2827 2.58048 400.264 -44.2827 2.58048 400.264
21 1 -45.8572 2.54011 402.21 -45.8572 2.54011 402.21
288 1 -47.43 2.50265 404.187 -47.43 2.50265 404.187
285 1 -49.0078 2.46396 406.169 -49.0078 2.46396 406.169
571 1 -50.5887 2.42855 408.151 -50.5887 2.42855 408.151
568 1 -52.1699 2.39178 410.136 -52.1699 2.39178 410.136
852 1 -53.7525 2.35434 412.122 -53.7525 2.35434 412.122
848 1 -55.3363 2.31643 414.108 -55.3363 2.31643 414.108
306 1 -38.1128 2.51659 402.468 -38.1128 2.51659 402.468
302 1 -39.699 2.4853 404.446 -39.699 2.4853 404.446
299 1 -41.2827 2.45111 406.43 -41.2827 2.45111 406.43
583 1 -42.8668 2.416 408.414 -42.8668 2.416 408.414
581 1 -44.4511 2.37993 410.398 -44.4511 2.37993 410.398
866 1 -46.0357 2.34312 412.382 -46.0357 2.34312 412.382
880 1 -38.3127 2.32857 412.646 -38.3127 2.32857 412.646
312 1 -34.2769 1.73958 404.3 -34.2769 1.73958 404.3
2 1 100.884 1.14712 401.124 -58.2168 1.14712 401.124
13 1 -51.2461 3.26066 402.338 -51.2461 3.26066 402.338
278 1 -52.8347 3.23893 404.331 -52.8347 3.23893 404.331
275 1 -54.4144 3.20806 406.32 -54.4144 3.20806 406.32
562 1 -55.994 3.17118 408.31 -55.994 3.17118 408.31
559 1 -57.5765 3.13466 410.297 -57.5765 3.13466 410.297
1166 1 -38.4557 3.67346 419.434 -38.4557 3.67346 419.434
889 1 -32.8971 1.58609 412.499 -32.8971 1.58609 412.499
28 1 -41.9484 3.29192 400.651 -41.9484 3.29192 400.651
296 1 -43.535 3.26382 402.622 -43.535 3.26382 402.622
292 1 -45.1169 3.23101 404.604 -45.1169 3.23101 404.604
289 1 -46.6978 3.19436 406.588 -46.6978 3.19436 406.588
574 1 -48.2797 3.15738 408.571 -48.2797 3.15738 408.571
572 1 -49.8621 3.12027 410.555 -49.8621 3.12027 410.555
856 1 -51.445 3.08234 412.54 -51.445 3.08234 412.54
303 1 -38.9709 3.17764 406.85 -38.9709 3.17764 406.85
587 1 -40.5557 3.14247 408.833 -40.5557 3.14247 408.833
584 1 -42.1407 3.10662 410.816 -42.1407 3.10662 410.816
870 1 -43.726 3.0701 412.8 -43.726 3.0701 412.8
6 1 -55.8866 1.83269 401.497 -55.8866 1.83269 401.497
270 1 -57.4511 1.79576 403.502 -57.4511 1.79576 403.502
890 1 -32.1744 2.2777 414.902 -32.1744 2.2777 414.902
18 1 -48.157 1.79645 401.781 -48.157 1.79645 401.781
284 1 -49.7336 1.76398 403.763 -49.7336 1.76398 403.763
281 1 -51.3154 1.73357 405.747 -51.3154 1.73357 405.747
567 1 -52.8961 1.70079 407.732 -52.8961 1.70079 407.732
564 1 -54.4771 1.66443 409.719 -54.4771 1.66443 409.719
561 1 -56.0601 1.62766 411.706 -56.0601 1.62766 411.706
844 1 -57.6435 1.58966 413.692 -57.6435 1.58966 413.692
33 1 -38.8557 1.82905 400.107 -38.8557 1.82905 400.107
30 1 -40.4363 1.79183 402.046 -40.4363 1.79183 402.046
298 1 -42.0134 1.75977 404.028 -42.0134 1.75977 404.028
295 1 -43.5954 1.72557 406.013 -43.5954 1.72557 406.013
580 1 -45.1782 1.6897 407.997 -45.1782 1.6897 407.997
577 1 -46.7614 1.65305 409.981 -46.7614 1.65305 409.981
862 1 -48.345 1.61576 411.965 -48.345 1.61576 411.965
590 1 -39.0371 1.63758 410.244 -39.0371 1.63758 410.244
876 1 -40.623 1.6016 412.227 -40.623 1.6016 412.227
1163 1 -39.9709 0.750536 418.023 -39.9709 0.750536 418.023
1153 1 -46.1755 3.68427 419.171 -46.1755 3.68427 419.171
311 1 -35.0702 3.93739 405.291 -35.0702 3.93739 405.291
42 1 -33.4245 1.08367 399.964 -33.4245 1.08367 399.964
1135 1 -56.9908 0.731517 419.49 -56.9908 0.731517 419.49
1171 1 -35.352 2.20594 418.863 -35.352 2.20594 418.863
1139 1 -54.6842 1.4599 419.906 -54.6842 1.4599 419.906
601 1 -32.8267 3.12513 409.106 -32.8267 3.12513 409.106
313 1 -33.4793 3.97015 403.309 -33.4793 3.97015 403.309
858 1 -49.9291 1.57766 413.95 -49.9291 1.57766 413.95
868 1 -44.5188 0.837867 413.792 -44.5188 0.837867 413.792
1147 1 -49.9986 0.0339318 417.344 -49.9986 4.46138 417.344
843 1 100.666 3.78383 414.685 -58.4353 3.78383 414.685
593 1 -36.726 2.36424 410.664 -36.726 2.36424 410.664
308 1 -36.5922 1.01427 403.878 -36.5922 1.01427 403.878
861 1 -48.4132 0.0726311 415.359 -48.4132 4.50008 415.359
1158 1 -43.0736 2.21764 418.596 -43.0736 2.21764 418.596
884 1 -36.0021 3.05548 413.067 -36.0021 3.05548 413.067
881 1 -37.5895 3.01947 415.049 -37.5895 3.01947 415.049
885 1 -35.2793 3.74666 415.47 -35.2793 3.74666 415.47
859 1 -49.2058 2.26708 416.352 -49.2058 2.26708 416.352
596 1 -35.1392 2.39908 408.683 -35.1392 2.39908 408.683
879 1 -38.3833 0.787498 416.04 -38.3833 0.787498 416.04
1172 1 -34.5576 0.0103959 417.872 -34.5576 4.43785 417.872
1154 1 -45.3822 1.48978 418.178 -45.3822 1.48978 418.178
887 1 -34.4852 1.55083 414.479 -34.4852 1.55083 414.479
597 1 -34.4146 3.09076 411.086 -34.4146 3.09076 411.086
1161 1 -41.4864 2.25526 416.612 -41.4864 2.25526 416.612
1138 1 -55.4059 0.771692 417.504 -55.4059 0.771692 417.504
1149 1 -48.4836 2.95622 418.754 -48.4836 2.95622 418.754
41 1 -34.2084 3.27776 400.926 -34.2084 3.27776 400.926
888 1 -33.6912 3.78228 413.489 -33.6912 3.78228 413.489
1165 1 -39.177 2.98282 417.031 -39.177 2.98282 417.031
1141 1 -53.0989 1.49983 417.92 -53.0989 1.49983 417.92
1145 1 -50.7914 2.22807 418.337 -50.7914 2.22807 418.337
600 1 -33.5517 2.43287 406.704 -33.5517 2.43287 406.704
1148 1 -49.2768 0.722896 419.746 -49.2768 0.722896 419.746
882 1 -37.5194 0.132766 411.655 -37.5194 4.56022 411.655
1157 1 -43.8672 4.4123 419.588 -43.8672 4.4123 419.588
1144 1 -51.5843 4.42204 419.33 -51.5843 4.42204 419.33
602 1 -32.0323 0.928203 408.116 -32.0323 0.928203 408.116
1755 1 -31.6804 2.77604 427.48 -31.6804 2.77604 427.48
1460 1 -36.2212 2.86004 423.247 -36.2212 2.86004 423.247
2308 1 -45.0313 3.3119 437.553 -45.0313 3.3119 437.553
2316 1 -40.3461 1.89111 434.991 -40.3461 1.89111 434.991
2312 1 -42.7262 4.04305 437.97 -42.7262 4.04305 437.97
1464 1 -33.9123 3.58833 423.667 -33.9123 3.58833 423.667
1461 1 -35.4265 0.664917 422.256 -35.4265 0.664917 422.256
2039 1 -34.1448 3.39188 433.844 -34.1448 3.39188 433.844
2613 1 -35.8112 1.80935 439.221 -35.8112 1.80935 439.221
1467 1 -31.6031 4.31646 424.089 -31.6031 4.31646 424.089
2603 1 -41.2141 2.53979 439.379 -41.2141 2.53979 439.379
1443 1 -45.4545 4.37366 421.572 -45.4545 4.37366 421.572
1748 1 -35.5023 3.55109 425.648 -35.5023 3.55109 425.648
2023 1 -42.6519 1.16036 434.574 -42.6519 1.16036 434.574
2310 1 -43.5189 1.80845 438.963 -43.5189 1.80845 438.963
1151 1 -46.9689 1.45112 420.163 -46.9689 1.45112 420.163
2303 1 -48.1293 0.346177 438.13 -48.1293 0.346177 438.13
2299 1 -50.4349 4.04284 437.714 -50.4349 4.04284 437.714
2033 1 -37.246 0.428174 434.417 -37.246 0.428174 434.417
1433 1 -50.8631 0.683177 421.732 -50.8631 0.683177 421.732
1430 1 -52.4494 0.642764 423.718 -52.4494 0.642764 423.718
1426 1 -54.0358 0.601729 425.704 -54.0358 0.601729 425.704
1713 1 -55.622 0.56021 427.691 -55.622 0.56021 427.691
1710 1 -57.2084 0.518385 429.677 -57.2084 0.518385 429.677
2330 1 -31.9171 2.58027 437.656 -31.9171 2.58027 437.656
1160 1 -41.5586 0.712931 420.006 -41.5586 0.712931 420.006
1447 1 -43.1465 0.674652 421.99 -43.1465 0.674652 421.99
1444 1 -44.7342 0.635676 423.974 -44.7342 0.635676 423.974
1730 1 -46.3218 0.595986 425.959 -46.3218 0.595986 425.959
1727 1 -47.9091 0.555604 427.944 -47.9091 0.555604 427.944
1724 1 -49.4961 0.514606 429.93 -49.4961 0.514606 429.93
2008 1 -51.0826 0.473119 431.917 -51.0826 0.473119 431.917
2006 1 -52.6687 0.431315 433.903 -52.6687 0.431315 433.903
1458 1 -37.0159 0.627539 424.238 -37.0159 0.627539 424.238
1743 1 -38.6052 0.589458 426.22 -38.6052 0.589458 426.22
1740 1 -40.1942 0.550628 428.203 -40.1942 0.550628 428.203
2026 1 -41.7828 0.511028 430.187 -41.7828 0.511028 430.187
2022 1 -43.3706 0.47068 432.172 -43.3706 0.47068 432.172
2019 1 -44.9577 0.429659 434.158 -44.9577 0.429659 434.158
2309 1 -44.2385 1.11902 436.56 -44.2385 1.11902 436.56
1137 1 -55.4769 3.65337 420.9 -55.4769 3.65337 420.9
1421 1 -57.0625 3.61235 422.886 -57.0625 3.61235 422.886
1439 1 -47.7623 3.64526 421.155 -47.7623 3.64526 421.155
1435 1 -49.3491 3.60555 423.141 -49.3491 3.60555 423.141
1432 1 -50.9359 3.56514 425.127 -50.9359 3.56514 425.127
1719 1 -52.5224 3.52412 427.113 -52.5224 3.52412 427.113
1716 1 -54.1089 3.48263 429.099 -54.1089 3.48263 429.099
2001 1 -55.6952 3.44083 431.086 -55.6952 3.44083 431.086
1998 1 -57.2813 3.39892 433.073 -57.2813 3.39892 433.073
2323 1 -35.7343 3.35255 435.827 -35.7343 3.35255 435.827
1453 1 -40.0441 3.6359 421.416 -40.0441 3.6359 421.416
1450 1 -41.6324 3.59766 423.4 -41.6324 3.59766 423.4
1446 1 -43.2206 3.55871 425.384 -43.2206 3.55871 425.384
1732 1 -44.8086 3.51904 427.368 -44.8086 3.51904 427.368
1729 1 -46.3961 3.47866 429.353 -46.3961 3.47866 429.353
2014 1 -47.9831 3.43766 431.339 -47.9831 3.43766 431.339
2011 1 -49.5696 3.39616 433.325 -49.5696 3.39616 433.325
1745 1 -37.0921 3.51313 427.63 -37.0921 3.51313 427.63
1742 1 -38.6815 3.47439 429.613 -38.6815 3.47439 429.613
2028 1 -40.2702 3.43484 431.597 -40.2702 3.43484 431.597
2025 1 -41.8582 3.39452 433.582 -41.8582 3.39452 433.582
1427 1 -53.9631 2.14799 422.309 -53.9631 2.14799 422.309
1424 1 -55.5491 2.10695 424.295 -55.5491 2.10695 424.295
1711 1 -57.1352 2.06541 426.282 -57.1352 2.06541 426.282
2322 1 -36.5286 1.1188 436.819 -36.5286 1.1188 436.819
1750 1 -33.989 2.04735 427.059 -33.989 2.04735 427.059
1155 1 -44.6608 2.17934 420.58 -44.6608 2.17934 420.58
1441 1 -46.2482 2.14035 422.565 -46.2482 2.14035 422.565
1438 1 -47.8354 2.10065 424.55 -47.8354 2.10065 424.55
1725 1 -49.4224 2.06026 426.535 -49.4224 2.06026 426.535
1722 1 -51.0092 2.01925 428.521 -51.0092 2.01925 428.521
1718 1 -52.5957 1.97777 430.508 -52.5957 1.97777 430.508
2003 1 -54.1819 1.93598 432.495 -54.1819 1.93598 432.495
2000 1 -55.7679 1.89407 434.481 -55.7679 1.89407 434.481
1459 1 -36.9409 2.16911 420.845 -36.9409 2.16911 420.845
1455 1 -38.5299 2.13162 422.827 -38.5299 2.13162 422.827
1452 1 -40.1187 2.09345 424.81 -40.1187 2.09345 424.81
1737 1 -41.7073 2.05455 426.793 -41.7073 2.05455 426.793
1735 1 -43.2955 2.0149 428.778 -43.2955 2.0149 428.778
2020 1 -44.8832 1.97454 430.763 -44.8832 1.97454 430.763
2017 1 -46.4703 1.93353 432.748 -46.4703 1.93353 432.748
2034 1 -37.169 1.97089 431.024 -37.169 1.97089 431.024
2031 1 -38.758 1.93141 433.007 -38.758 1.93141 433.007
2029 1 -39.5522 4.12509 433.999 -39.5522 4.12509 433.999
1146 1 -50.0699 2.91685 420.739 -50.0699 2.91685 420.739
1431 1 -51.6563 2.87678 422.725 -51.6563 2.87678 422.725
1428 1 -53.2426 2.83604 424.711 -53.2426 2.83604 424.711
1715 1 -54.8289 2.79475 426.697 -54.8289 2.79475 426.697
1712 1 -56.4152 2.75305 428.684 -56.4152 2.75305 428.684
1708 1 101.099 2.71115 430.671 -58.0015 2.71115 430.671
1747 1 -35.5792 2.00953 429.041 -35.5792 2.00953 429.041
1449 1 -42.3526 2.9076 420.998 -42.3526 2.9076 420.998
1445 1 -43.9404 2.86898 422.982 -43.9404 2.86898 422.982
1442 1 -45.5281 2.82965 424.966 -45.5281 2.82965 424.966
1728 1 -47.1155 2.7896 426.952 -47.1155 2.7896 426.952
1726 1 -48.7027 2.7489 428.937 -48.7027 2.7489 428.937
2010 1 -50.2894 2.70764 430.923 -50.2894 2.70764 430.923
2007 1 -51.8757 2.66597 432.91 -51.8757 2.66597 432.91
1456 1 -37.8106 2.82232 425.229 -37.8106 2.82232 425.229
1741 1 -39.3998 2.78386 427.212 -39.3998 2.78386 427.212
1738 1 -40.9886 2.74465 429.195 -40.9886 2.74465 429.195
2024 1 -42.5768 2.70467 431.18 -42.5768 2.70467 431.18
2021 1 -44.1643 2.66397 433.165 -44.1643 2.66397 433.165
2035 1 -36.4515 2.66172 433.425 -36.4515 2.66172 433.425
1754 1 -32.3984 2.08444 425.079 -32.3984 2.08444 425.079
1423 1 -56.2697 1.41922 421.893 -56.2697 1.41922 421.893
1420 1 -57.8554 1.37789 423.88 -57.8554 1.37789 423.88
2044 1 -31.0424 1.92714 433.274 -31.0424 1.92714 433.274
1437 1 -48.5557 1.41177 422.148 -48.5557 1.41177 422.148
1434 1 -50.1425 1.3717 424.134 -50.1425 1.3717 424.134
1721 1 -51.7292 1.33098 426.12 -51.7292 1.33098 426.12
1717 1 -53.3157 1.2897 428.106 -53.3157 1.2897 428.106
1714 1 -54.902 1.24803 430.093 -54.902 1.24803 430.093
1999 1 -56.4883 1.20615 432.079 -56.4883 1.20615 432.079
1997 1 -58.0744 1.16427 434.066 -58.0744 1.16427 434.066
1164 1 -39.2499 1.44103 420.425 -39.2499 1.44103 420.425
1451 1 -40.8383 1.40314 422.408 -40.8383 1.40314 422.408
1448 1 -42.4266 1.36455 424.392 -42.4266 1.36455 424.392
1734 1 -44.0146 1.32524 426.376 -44.0146 1.32524 426.376
1731 1 -45.6024 1.28521 428.361 -45.6024 1.28521 428.361
2016 1 -47.1897 1.24451 430.346 -47.1897 1.24451 430.346
2012 1 -48.7764 1.20323 432.332 -48.7764 1.20323 432.332
2009 1 -50.3626 1.16154 434.319 -50.3626 1.16154 434.319
1746 1 -36.2972 1.31848 426.639 -36.2972 1.31848 426.639
1744 1 -37.8868 1.28013 428.622 -37.8868 1.28013 428.622
2030 1 -39.4759 1.24099 430.605 -39.4759 1.24099 430.605
2027 1 -41.0644 1.20105 432.589 -41.0644 1.20105 432.589
2325 1 -34.9397 1.15861 434.836 -34.9397 1.15861 434.836
1749 1 -34.7841 4.24226 428.05 -34.7841 4.24226 428.05
1425 1 -54.7561 4.34127 423.302 -54.7561 4.34127 423.302
1736 1 -42.5015 4.24854 427.785 -42.5015 4.24854 427.785
1142 1 -52.3772 2.18839 420.323 -52.3772 2.18839 420.323
1720 1 -51.8025 4.21229 429.515 -51.8025 4.21229 429.515
2005 1 -53.3888 4.17063 431.501 -53.3888 4.17063 431.501
2002 1 -54.9749 4.12875 433.488 -54.9749 4.12875 433.488
1169 1 -36.1465 4.40133 419.854 -36.1465 4.40133 419.854
1723 1 -50.2158 4.25355 427.528 -50.2158 4.25355 427.528
1440 1 -47.0418 4.33431 423.557 -47.0418 4.33431 423.557
1733 1 -44.0895 4.20854 429.77 -44.0895 4.20854 429.77
2018 1 -45.6769 4.16783 431.755 -45.6769 4.16783 431.755
2015 1 -47.2636 4.12654 433.741 -47.2636 4.12654 433.741
2036 1 -36.3742 4.20404 430.032 -36.3742 4.20404 430.032
2032 1 -37.9636 4.16499 432.015 -37.9636 4.16499 432.015
2326 1 -34.2229 1.84961 437.237 -34.2229 1.84961 437.237
1752 1 -33.1937 4.27971 426.069 -33.1937 4.27971 426.069
1457 1 -37.7354 4.36417 421.836 -37.7354 4.36417 421.836
2043 1 -31.7588 1.23541 430.872 -31.7588 1.23541 430.872
2286 1 -57.3536 1.85225 436.468 -57.3536 1.85225 436.468
2319 1 -38.1162 1.0781 438.804 -38.1162 1.0781 438.804
1436 1 -48.6289 4.29426 425.543 -48.6289 4.29426 425.543
1422 1 -56.3422 4.29996 425.288 -56.3422 4.29996 425.288
1173 1 -33.837 0.70164 420.275 -33.837 0.70164 420.275
2293 1 -53.5332 1.07766 438.292 -53.5332 1.07766 438.292
2289 1 -55.8396 0.347543 437.877 -55.8396 0.347543 437.877
2295 1 -52.0194 4.00083 439.701 -52.0194 4.00083 439.701
1465 1 -33.1173 1.39298 422.677 -33.1173 1.39298 422.677
2315 1 -40.4211 0.346836 438.386 -40.4211 0.346836 438.386
2331 1 -31.8379 4.12186 434.264 -31.8379 4.12186 434.264
2297 1 -51.2272 1.8081 438.708 -51.2272 1.8081 438.708
2324 1 -35.0173 4.04333 438.229 -35.0173 4.04333 438.229
2306 1 -45.824 1.07722 438.546 -45.824 1.07722 438.546
2285 1 -57.4245 0.305968 439.864 -57.4245 0.305968 439.864
1462 1 -34.7073 1.35607 424.658 -34.7073 1.35607 424.658
1751 1 -33.2713 2.73876 429.461 -33.2713 2.73876 429.461
2329 1 -32.6332 1.88888 435.255 -32.6332 1.88888 435.255
2042 1 -32.5544 3.43028 431.863 -32.5544 3.43028 431.863
2041 1 -33.3497 1.19747 432.853 -33.3497 1.19747 432.853
2593 1 -46.6163 3.26993 439.54 -46.6163 3.26993 439.54
2328 1 -32.7118 0.346802 438.648 -32.7118 0.346802 438.648
2301 1 -48.9216 2.53887 439.124 -48.9216 2.53887 439.124
1466 1 -32.3222 3.62492 421.687 -32.3222 3.62492 421.687
2298 1 -51.1555 3.35432 435.312 -51.1555 3.35432 435.312
2321 1 -37.3226 3.31228 437.811 -37.3226 3.31228 437.811
2313 1 -41.9331 1.85007 436.977 -41.9331 1.85007 436.977
2294 1 -52.7408 3.31236 437.299 -52.7408 3.31236 437.299
2304 1 -47.3367 2.5809 437.137 -47.3367 2.5809 437.137
2300 1 -49.6423 1.85012 436.721 -49.6423 1.85012 436.721
2290 1 -55.047 2.58217 436.883 -55.047 2.58217 436.883
2318 1 -38.8342 0.387894 436.401 -38.8342 0.387894 436.401
2327 1 -33.4282 4.0831 436.246 -33.4282 4.0831 436.246
2004 1 -53.4616 2.62408 434.897 -53.4616 2.62408 434.897
2013 1 -48.0567 1.892 434.734 -48.0567 1.892 434.734
2288 1 -56.5607 4.08687 435.475 -56.5607 4.08687 435.475
2037 1 -35.6568 0.467581 432.434 -35.6568 0.467581 432.434
1739 1 -40.913 4.28782 425.802 -40.913 4.28782 425.802
1753 1 -32.4759 0.54377 428.471 -32.4759 0.54377 428.471
2307 1 -45.7509 2.62266 435.151 -45.7509 2.62266 435.151
2314 1 -41.1397 4.0844 435.984 -41.1397 4.0844 435.984
2040 1 -34.0666 0.506098 430.452 -34.0666 0.506098 430.452
2320 1 -38.0403 2.62187 435.409 -38.0403 2.62187 435.409
2292 1 -54.2543 0.389389 435.89 -54.2543 0.389389 435.89
2311 1 -43.4453 3.35349 435.567 -43.4453 3.35349 435.567
2302 1 -48.8496 4.08482 435.728 -48.8496 4.08482 435.728
2296 1 -51.9482 1.11962 436.305 -51.9482 1.11962 436.305
1463 1 -34.6317 2.89708 421.265 -34.6317 2.89708 421.265
2287 1 -56.6321 2.54044 438.87 -56.6321 2.54044 438.87
2291 1 -54.3255 3.27046 439.286 -54.3255 3.27046 439.286
2317 1 -39.6278 2.58118 437.394 -39.6278 2.58118 437.394
2038 1 -34.8618 2.70068 431.443 -34.8618 2.70068 431.443
2305 1 -46.5439 0.388098 436.144 -46.5439 0.388098 436.144
2332 1 -31.1219 0.386014 436.665 -31.1219 0.386014 436.665
1709 1 -57.9283 4.25823 427.275 -57.9283 4.25823 427.275
1468 1 -31.5272 1.42925 420.697 -31.5272 1.42925 420.697
1454 1 -39.3243 4.32635 423.818 -39.3243 4.32635 423.818
1429 1 -53.1702 4.382 421.316 -53.1702 4.382 421.316
1133 1 -57.7834 2.92483 420.484 -57.7834 2.92483 420.484
1175 1 -33.0422 2.93349 419.284 -33.0422 2.93349 419.284
2616 1 -33.5826 0.996937 443.034 -33.5826 0.996937 443.034
2901 1 -35.1676 0.955192 445.02 -35.1676 0.955192 445.02
2907 1 -32.072 3.92163 444.445 -32.072 3.92163 444.445
3194 1 -32.9364 0.141721 448.835 -32.9364 0.141721 448.835
2587 1 -49.7137 0.304104 440.117 -49.7137 0.304104 440.117
2597 1 -44.3114 4.00121 439.956 -44.3114 4.00121 439.956
2584 1 -51.2973 0.262097 442.104 -51.2973 0.262097 442.104
2581 1 -52.8801 0.220376 444.091 -52.8801 0.220376 444.091
2868 1 -54.4623 0.179147 446.078 -54.4623 0.179147 446.078
2865 1 -56.044 0.138596 448.065 -56.044 0.138596 448.065
2601 1 -42.0067 0.305168 440.373 -42.0067 0.305168 440.373
2598 1 -43.5908 0.263115 442.36 -43.5908 0.263115 442.36
2885 1 -45.1735 0.220934 444.347 -45.1735 0.220934 444.347
2882 1 -46.755 0.178889 446.335 -46.755 0.178889 446.335
2879 1 -48.3352 0.137239 448.323 -48.3352 0.137239 448.323
2612 1 -35.8865 0.265288 442.617 -35.8865 0.265288 442.617
2898 1 -37.4708 0.223356 444.603 -37.4708 0.223356 444.603
2895 1 -39.0532 0.181033 446.591 -39.0532 0.181033 446.591
3180 1 -40.6336 0.138653 448.579 -40.6336 0.138653 448.579
2576 1 -55.9098 3.22885 441.273 -55.9098 3.22885 441.273
2574 1 -57.4936 3.18769 443.259 -57.4936 3.18769 443.259
2589 1 -48.2002 3.22781 441.527 -48.2002 3.22781 441.527
2586 1 -49.7832 3.18577 443.514 -49.7832 3.18577 443.514
2874 1 -51.3652 3.14403 445.501 -51.3652 3.14403 445.501
2871 1 -52.9464 3.1028 447.488 -52.9464 3.1028 447.488
3155 1 -54.5271 3.06227 449.475 -54.5271 3.06227 449.475
2607 1 -38.9093 3.27119 439.796 -38.9093 3.27119 439.796
2604 1 -40.4946 3.22946 441.783 -40.4946 3.22946 441.783
2600 1 -42.0782 3.18734 443.77 -42.0782 3.18734 443.77
2887 1 -43.6602 3.14511 445.758 -43.6602 3.14511 445.758
2884 1 -45.2408 3.10306 447.746 -45.2408 3.10306 447.746
3168 1 -46.8202 3.06148 449.734 -46.8202 3.06148 449.734
2900 1 -35.9592 3.14781 446.014 -35.9592 3.14781 446.014
2897 1 -37.5408 3.10537 448.002 -37.5408 3.10537 448.002
2582 1 -52.8114 1.76615 440.695 -52.8114 1.76615 440.695
2579 1 -54.395 1.72448 442.682 -54.395 1.72448 442.682
2866 1 -55.978 1.68328 444.669 -55.978 1.68328 444.669
2578 1 -55.1177 1.03588 440.279 -55.1177 1.03588 440.279
2595 1 -45.1035 1.76645 440.95 -45.1035 1.76645 440.95
2592 1 -46.6868 1.7243 442.937 -46.6868 1.7243 442.937
2880 1 -48.2691 1.68224 444.924 -48.2691 1.68224 444.924
2877 1 -49.8502 1.64053 446.912 -49.8502 1.64053 446.912
2873 1 -51.4305 1.59936 448.899 -51.4305 1.59936 448.899
2609 1 -37.3978 1.7682 441.206 -37.3978 1.7682 441.206
2606 1 -38.9826 1.72638 443.193 -38.9826 1.72638 443.193
2892 1 -40.5656 1.68416 445.18 -40.5656 1.68416 445.18
2890 1 -42.1469 1.64187 447.168 -42.1469 1.64187 447.168
3174 1 -43.7266 1.59979 449.157 -43.7266 1.59979 449.157
2618 1 -32.7893 3.23122 442.042 -32.7893 3.23122 442.042
2585 1 -50.5056 2.4968 441.111 -50.5056 2.4968 441.111
2583 1 -52.0888 2.45491 443.098 -52.0888 2.45491 443.098
2870 1 -53.6713 2.41341 445.085 -53.6713 2.41341 445.085
2867 1 -55.2532 2.3725 447.072 -55.2532 2.3725 447.072
2863 1 -56.8347 2.33235 449.058 -56.8347 2.33235 449.058
2599 1 -42.7989 2.4979 441.366 -42.7989 2.4979 441.366
2596 1 -44.3823 2.45575 443.353 -44.3823 2.45575 443.353
2883 1 -45.9644 2.4136 445.341 -45.9644 2.4136 445.341
2881 1 -47.5452 2.37173 447.329 -47.5452 2.37173 447.329
3164 1 -49.125 2.33036 449.317 -49.125 2.33036 449.317
2610 1 -36.6789 2.45812 443.61 -36.6789 2.45812 443.61
2896 1 -38.2622 2.41595 445.597 -38.2622 2.41595 445.597
2893 1 -39.8436 2.37356 447.585 -39.8436 2.37356 447.585
3178 1 -41.4231 2.33127 449.574 -41.4231 2.33127 449.574
2575 1 -56.7018 0.994473 442.266 -56.7018 0.994473 442.266
2591 1 -47.4084 1.03515 440.533 -47.4084 1.03515 440.533
2588 1 -48.9918 0.993043 442.521 -48.9918 0.993043 442.521
2876 1 -50.5743 0.951123 444.508 -50.5743 0.951123 444.508
2872 1 -52.1559 0.909611 446.495 -52.1559 0.909611 446.495
2869 1 -53.7368 0.868711 448.482 -53.7368 0.868711 448.482
2605 1 -39.7021 1.03666 440.789 -39.7021 1.03666 440.789
2602 1 -41.2866 0.994701 442.776 -41.2866 0.994701 442.776
2889 1 -42.8694 0.952491 444.764 -42.8694 0.952491 444.764
2886 1 -44.4507 0.910318 446.752 -44.4507 0.910318 446.752
3170 1 -46.0306 0.868472 448.74 -46.0306 0.868472 448.74
2899 1 -36.7503 0.912889 447.008 -36.7503 0.912889 447.008
3184 1 -38.3308 0.870399 448.996 -38.3308 0.870399 448.996
2580 1 -53.6033 3.95899 441.688 -53.6033 3.95899 441.688
2577 1 -55.1866 3.91754 443.675 -55.1866 3.91754 443.675
2864 1 -56.7694 3.87665 445.662 -56.7694 3.87665 445.662
2862 1 -57.5607 1.64274 446.655 -57.5607 1.64274 446.655
2594 1 -45.8953 3.9591 441.943 -45.8953 3.9591 441.943
2590 1 -47.4781 3.91697 443.931 -47.4781 3.91697 443.931
2878 1 -49.0598 3.87505 445.918 -49.0598 3.87505 445.918
2875 1 -50.6405 3.83359 447.906 -50.6405 3.83359 447.906
3159 1 -52.2204 3.79278 449.893 -52.2204 3.79278 449.893
2611 1 -36.6047 4.0026 440.214 -36.6047 4.0026 440.214
2608 1 -38.1904 3.96108 442.199 -38.1904 3.96108 442.199
2894 1 -39.7743 3.91903 444.186 -39.7743 3.91903 444.186
2891 1 -41.3565 3.87673 446.174 -41.3565 3.87673 446.174
2888 1 -42.9369 3.83451 448.162 -42.9369 3.83451 448.162
2904 1 -33.6565 3.87972 446.431 -33.6565 3.87972 446.431
2621 1 -31.2011 3.27155 440.058 -31.2011 3.27155 440.058
2617 1 -33.5062 2.54051 439.639 -33.5062 2.54051 439.639
2614 1 -35.0935 2.49973 441.624 -35.0935 2.49973 441.624
2908 1 -31.354 0.184198 446.848 -31.354 0.184198 446.848
2619 1 -31.9954 1.0378 441.05 -31.9954 1.0378 441.05
2906 1 -32.1456 2.37675 447.841 -32.1456 2.37675 447.841
2905 1 -32.8645 1.68704 445.437 -32.8645 1.68704 445.437
2620 1 -31.2788 1.72854 443.452 -31.2788 1.72854 443.452
3190 1 -35.2384 3.83725 448.418 -35.2384 3.83725 448.418
2902 1 -34.4478 1.6448 447.424 -34.4478 1.6448 447.424
2903 1 -34.3754 3.18988 444.027 -34.3754 3.18988 444.027
2615 1 -34.3001 0.306516 440.631 -34.3001 0.306516 440.631
2909 1 -30.5617 2.4189 445.855 -30.5617 2.4189 445.855
14 1 -51.2585 0.403361 399.075 -51.2585 4.83081 399.075
7 1 -55.7441 3.35532 398.359 -55.7441 3.35532 398.359
25 1 -43.4891 0.401062 399.26 -43.4891 4.82851 399.26
38 1 -35.7086 0.328531 399.472 -35.7086 4.75598 399.472
23 1 -45.065 0.3479 401.231 -45.065 4.77535 401.231
287 1 -48.2188 0.268342 405.176 -48.2188 4.69579 405.176
878 1 -39.106 0.0967439 413.638 -39.106 4.5242 413.638
579 1 -45.2433 0.147914 411.39 -45.2433 4.57537 411.39
585 1 -42.0746 0.22006 407.422 -42.0746 4.64751 407.422
290 1 -46.6431 0.30718 403.198 -46.6431 4.73463 403.198
11 1 -52.7842 0.341247 400.995 -52.7842 4.7687 400.995
595 1 -35.9326 0.168069 409.674 -35.9326 4.59552 409.674
1134 1 -57.7126 0.0438749 417.088 -57.7126 4.47133 417.088
283 1 -49.7983 0.232256 407.159 -49.7983 4.65971 407.159
582 1 -43.6589 0.18437 409.406 -43.6589 4.61182 409.406
276 1 -54.3689 0.323172 402.939 -54.3689 4.75063 402.939
569 1 -51.3791 0.196529 409.143 -51.3791 4.62398 409.143
847 1 -56.1283 0.0833765 415.101 -56.1283 4.51083 415.101
272 1 -55.937 0.289739 404.916 -55.937 4.71719 404.916
3 1 -57.493 3.35763 400.133 -57.493 3.35763 400.133
35 1 -37.3103 0.315992 401.463 -37.3103 4.74344 401.463
598 1 -34.3454 0.202432 407.693 -34.3454 4.62989 407.693
850 1 -54.5443 0.121753 413.115 -54.5443 4.54921 413.115
304 1 -38.9033 0.289117 403.454 -38.9033 4.71657 403.454
301 1 -40.4899 0.255028 405.439 -40.4899 4.68248 405.439
269 1 -57.5124 0.251436 406.904 -57.5124 4.67889 406.904