ITEM: TIMESTEP
0
ITEM: NUMBER OF ATOMS
4630
ITEM: BOX BOUNDS xy xz yz pp pp pp
-6.3340988501799998e+01 1.0636002035000000e+02 0.0000000000000000e+00
0.0000000000000000e+00 4.4274527100805940e+00 0.0000000000000000e+00
3.8000000000000000e+02 5.0000000000000000e+02 0.0000000000000000e+00
ITEM: ATOMS id type x y z xu yu zu
27 1 -45.6112 2.12419 399.526 -45.6112 2.12419 399.526
36 1 -40.006 1.38259 399.583 -40.006 1.38259 399.583
31 1 -43.2198 2.81859 399.965 -43.2198 2.81859 399.965
22 1 -48.8084 3.57053 399.933 -48.8084 3.57053 399.933
20 1 -49.6842 1.34879 400.78 -49.6842 1.34879 400.78
40 1 -37.6167 2.07838 400.025 -37.6167 2.07838 400.025
34 1 -40.8592 3.58098 400.42 -40.8592 3.58098 400.42
17 1 -52.0488 0.597837 400.332 -52.0488 0.597837 400.332
9 1 -57.6185 1.2882 400.244 -57.6185 1.2882 400.244
43 1 -35.2572 2.84153 400.481 -35.2572 2.84153 400.481
12 1 -55.2856 2.10014 400.727 -55.2856 2.10014 400.727
5 1 -60.0016 0.615472 399.782 -60.0016 0.615472 399.782
29 1 -44.081 0.58987 400.82 -44.081 0.58987 400.82
853 1 -57.0507 2.73677 414.915 -57.0507 2.73677 414.915
873 1 -45.8506 1.26097 415.042 -45.8506 1.26097 415.042
865 1 -49.9475 0.515151 416.418 -49.9475 0.515151 416.418
1174 1 -37.2417 1.9797 417.983 -37.2417 1.9797 417.983
883 1 -40.2495 0.521731 415.104 -40.2495 0.521731 415.104
863 1 -51.452 1.99987 414.978 -51.452 1.99987 414.978
315 1 -35.4818 1.32748 403.774 -35.4818 1.32748 403.774
307 1 -40.441 2.79072 406.092 -40.441 2.79072 406.092
1150 1 -51.6749 0.503186 418.296 -51.6749 0.503186 418.296
855 1 -55.5467 1.25234 416.355 -55.5467 1.25234 416.355
310 1 -38.7126 2.80324 404.219 -38.7126 2.80324 404.219
871 1 -46.715 3.46915 415.98 -46.715 3.46915 415.98
16 1 -52.9083 2.79628 401.189 -52.9083 2.79628 401.189
309 1 -38.9361 1.30593 407.53 -38.9361 1.30593 407.53
1156 1 -48.4431 3.45778 417.858 -48.4431 3.45778 417.858
867 1 -49.0836 2.73464 415.479 -49.0836 2.73464 415.479
1159 1 -46.0748 4.19238 418.359 -46.0748 4.19238 418.359
1168 1 -40.474 3.45327 418.422 -40.474 3.45327 418.422
1170 1 -39.6098 1.24512 417.483 -39.6098 1.24512 417.483
594 1 -39.8003 3.51399 408.47 -39.8003 3.51399 408.47
37 1 -39.3517 2.07934 401.864 -39.3517 2.07934 401.864
851 1 -57.9139 0.516763 415.855 -57.9139 0.516763 415.855
857 1 -54.6834 3.47231 415.416 -54.6834 3.47231 415.416
592 1 -40.6644 1.29462 409.408 -40.6644 1.29462 409.408
849 1 -58.7771 2.72426 416.795 -58.7771 2.72426 416.795
877 1 -43.4821 1.9954 415.542 -43.4821 1.9954 415.542
1143 1 -56.4099 3.45983 417.295 -56.4099 3.45983 417.295
1140 1 -58.1365 3.44739 419.174 -58.1365 3.44739 419.174
845 1 -61.1443 1.98875 416.295 -61.1443 1.98875 416.295
875 1 -44.3464 4.20358 416.481 -44.3464 4.20358 416.481
886 1 -38.5209 0.53296 413.226 -38.5209 0.53296 413.226
891 1 -35.2886 3.48691 412.788 -35.2886 3.48691 412.788
39 1 -37.8528 0.588887 403.267 -37.8528 0.588887 403.267
1177 1 -35.7379 0.494989 419.423 -35.7379 0.494989 419.423
1167 1 -41.3382 1.23396 419.36 -41.3382 1.23396 419.36
8 1 -58.4934 3.5439 401.203 -58.4934 3.5439 401.203
869 1 -47.5791 1.2498 416.919 -47.5791 1.2498 416.919
1136 1 -60.5037 2.71189 418.674 -60.5037 2.71189 418.674
1162 1 -44.5706 2.70752 419.799 -44.5706 2.70752 419.799
15 1 -53.7768 0.596198 402.175 -53.7768 0.596198 402.175
280 1 -55.5084 0.582897 404.031 -55.5084 0.582897 404.031
277 1 -57.2477 0.582982 405.898 -57.2477 0.582982 405.898
273 1 -58.9753 0.570606 407.773 -58.9753 0.570606 407.773
560 1 -60.6996 0.555876 409.654 -60.6996 0.555876 409.654
557 1 -62.4254 0.542653 411.535 -62.4254 0.542653 411.535
26 1 -45.8126 0.600012 402.706 -45.8126 0.600012 402.706
294 1 -47.5449 0.590359 404.592 -47.5449 0.590359 404.592
291 1 -49.2737 0.574559 406.468 -49.2737 0.574559 406.468
576 1 -51.0025 0.562094 408.345 -51.0025 0.562094 408.345
573 1 -52.7327 0.552324 410.22 -52.7327 0.552324 410.22
570 1 -54.461 0.541539 412.097 -54.461 0.541539 412.097
854 1 -56.1876 0.529308 413.975 -56.1876 0.529308 413.975
305 1 -41.3041 0.571657 407.03 -41.3041 0.571657 407.03
589 1 -43.0328 0.560222 408.909 -43.0328 0.560222 408.909
586 1 -44.7615 0.54876 410.786 -44.7615 0.54876 410.786
872 1 -46.4904 0.537553 412.664 -46.4904 0.537553 412.664
599 1 -36.7924 0.544288 411.348 -36.7924 0.544288 411.348
1132 1 -62.871 1.9765 418.174 -62.871 1.9765 418.174
4 1 -60.2676 3.56624 403.002 -60.2676 3.56624 403.002
268 1 -61.9822 3.53858 404.886 -61.9822 3.53858 404.886
1152 1 -50.8113 2.72295 417.357 -50.8113 2.72295 417.357
19 1 -50.559 3.53952 401.711 -50.559 3.53952 401.711
286 1 -52.278 3.53106 403.576 -52.278 3.53106 403.576
282 1 -54.006 3.52621 405.461 -54.006 3.52621 405.461
279 1 -55.7411 3.52169 407.337 -55.7411 3.52169 407.337
565 1 -57.4699 3.51177 409.214 -57.4699 3.51177 409.214
563 1 -59.1955 3.49861 411.094 -59.1955 3.49861 411.094
846 1 -60.9216 3.48567 412.975 -60.9216 3.48567 412.975
32 1 -42.582 3.54917 402.291 -42.582 3.54917 402.291
300 1 -44.313 3.54247 404.159 -44.313 3.54247 404.159
297 1 -46.0422 3.53065 406.032 -46.0422 3.53065 406.032
293 1 -47.77 3.51843 407.908 -47.77 3.51843 407.908
578 1 -49.4987 3.5065 409.785 -49.4987 3.5065 409.785
575 1 -51.2283 3.49573 411.661 -51.2283 3.49573 411.661
860 1 -52.9565 3.48449 413.538 -52.9565 3.48449 413.538
591 1 -41.5288 3.5026 410.348 -41.5288 3.5026 410.348
588 1 -43.2574 3.49133 412.225 -43.2574 3.49133 412.225
874 1 -44.9862 3.4802 414.103 -44.9862 3.4802 414.103
10 1 -57.0069 2.0551 402.599 -57.0069 2.0551 402.599
274 1 -58.7574 2.07216 404.451 -58.7574 2.07216 404.451
271 1 -60.48 2.0559 406.33 -60.48 2.0559 406.33
558 1 -62.203 2.03989 408.214 -62.203 2.03989 408.214
24 1 -47.3362 2.07868 401.299 -47.3362 2.07868 401.299
21 1 -49.0558 2.07194 403.15 -49.0558 2.07194 403.15
288 1 -50.7761 2.05695 405.03 -50.7761 2.05695 405.03
285 1 -52.5051 2.04481 406.907 -52.5051 2.04481 406.907
571 1 -54.237 2.03663 408.78 -54.237 2.03663 408.78
568 1 -55.9655 2.02638 410.656 -55.9655 2.02638 410.656
852 1 -57.6916 2.01388 412.535 -57.6916 2.01388 412.535
848 1 -59.4178 2.0012 414.415 -59.4178 2.0012 414.415
306 1 -41.0826 2.06666 403.713 -41.0826 2.06666 403.713
302 1 -42.8091 2.05588 405.589 -42.8091 2.05588 405.589
299 1 -44.5371 2.04521 407.469 -44.5371 2.04521 407.469
583 1 -46.2656 2.03366 409.347 -46.2656 2.03366 409.347
581 1 -47.9946 2.02219 411.224 -47.9946 2.02219 411.224
866 1 -49.7238 2.01123 413.101 -49.7238 2.01123 413.101
880 1 -41.7534 2.00652 413.665 -41.7534 2.00652 413.665
312 1 -37.2085 1.31691 405.65 -37.2085 1.31691 405.65
2 1 -61.7851 0.629717 401.566 -61.7851 0.629717 401.566
13 1 -54.6354 2.80033 403.078 -54.6354 2.80033 403.078
278 1 -56.3766 2.79646 404.96 -56.3766 2.79646 404.96
275 1 -58.1121 2.79138 406.832 -58.1121 2.79138 406.832
562 1 -59.8369 2.77677 408.713 -59.8369 2.77677 408.713
559 1 -61.5622 2.76283 410.594 -61.5622 2.76283 410.594
1166 1 -42.2024 3.44208 420.299 -42.2024 3.44208 420.299
889 1 -36.1528 1.26755 413.727 -36.1528 1.26755 413.727
28 1 -44.9522 2.81901 401.805 -44.9522 2.81901 401.805
296 1 -46.6843 2.80781 403.654 -46.6843 2.80781 403.654
292 1 -48.4104 2.79617 405.529 -48.4104 2.79617 405.529
289 1 -50.1375 2.78209 407.408 -50.1375 2.78209 407.408
574 1 -51.8675 2.77109 409.283 -51.8675 2.77109 409.283
572 1 -53.5971 2.76097 411.158 -53.5971 2.76097 411.158
856 1 -55.3244 2.74928 413.036 -55.3244 2.74928 413.036
303 1 -42.1689 2.77933 407.969 -42.1689 2.77933 407.969
587 1 -43.8972 2.76812 409.847 -43.8972 2.76812 409.847
584 1 -45.6259 2.75683 411.725 -45.6259 2.75683 411.725
870 1 -47.3549 2.74577 413.602 -47.3549 2.74577 413.602
6 1 -59.39 1.35046 402.077 -59.39 1.35046 402.077
270 1 -61.1241 1.33754 403.94 -61.1241 1.33754 403.94
267 1 -62.8424 1.31667 405.83 -62.8424 1.31667 405.83
890 1 -35.5132 1.9909 416.106 -35.5132 1.9909 416.106
18 1 -51.4094 1.32412 402.658 -51.4094 1.32412 402.658
284 1 -53.1393 1.31779 404.531 -53.1393 1.31779 404.531
281 1 -54.8744 1.31083 406.403 -54.8744 1.31083 406.403
567 1 -56.6066 1.30405 408.276 -56.6066 1.30405 408.276
564 1 -58.3329 1.29156 410.154 -58.3329 1.29156 410.154
561 1 -60.0585 1.27835 412.035 -60.0585 1.27835 412.035
844 1 -61.7849 1.26567 413.915 -61.7849 1.26567 413.915
33 1 -41.7368 1.33906 401.353 -41.7368 1.33906 401.353
30 1 -43.4534 1.32803 403.207 -43.4534 1.32803 403.207
298 1 -45.1778 1.32249 405.09 -45.1778 1.32249 405.09
295 1 -46.9057 1.31107 406.97 -46.9057 1.31107 406.97
580 1 -48.6342 1.2984 408.847 -48.6342 1.2984 408.847
577 1 -50.3636 1.28723 410.723 -50.3636 1.28723 410.723
862 1 -52.0926 1.27648 412.599 -52.0926 1.27648 412.599
590 1 -42.393 1.28328 411.287 -42.393 1.28328 411.287
876 1 -44.1218 1.27203 413.164 -44.1218 1.27203 413.164
1163 1 -43.7065 0.499442 418.86 -43.7065 0.499442 418.86
1153 1 -50.1706 3.44593 419.736 -50.1706 3.44593 419.736
311 1 -38.0715 3.52587 406.592 -38.0715 3.52587 406.592
42 1 -36.1352 0.599398 401.414 -36.1352 0.599398 401.414
1135 1 -61.3671 0.492028 419.614 -61.3671 0.492028 419.614
1171 1 -38.9701 1.96852 419.861 -38.9701 1.96852 419.861
1139 1 -58.9998 1.22748 420.114 -58.9998 1.22748 420.114
601 1 -35.9283 2.76365 410.409 -35.9283 2.76365 410.409
313 1 -36.3411 3.53809 404.713 -36.3411 3.53809 404.713
858 1 -53.8201 1.26474 414.477 -53.8201 1.26474 414.477
868 1 -48.2193 0.526537 414.541 -48.2193 0.526537 414.541
1147 1 -54.0425 4.19534 417.796 -54.0425 4.19534 417.796
843 1 -62.6481 3.47321 414.855 -62.6481 3.47321 414.855
593 1 -40.0248 2.01777 411.787 -40.0248 2.01777 411.787
308 1 -39.5763 0.582872 405.15 -39.5763 0.582872 405.15
861 1 -52.3157 4.20764 415.917 -52.3157 4.20764 415.917
1158 1 -46.9388 1.97292 419.298 -46.9388 1.97292 419.298
884 1 -39.3852 2.74106 414.165 -39.3852 2.74106 414.165
881 1 -41.1137 2.72988 416.043 -41.1137 2.72988 416.043
885 1 -38.7455 3.46443 416.544 -38.7455 3.46443 416.544
859 1 -53.1792 1.9878 416.856 -53.1792 1.9878 416.856
596 1 -38.2964 2.02906 409.909 -38.2964 2.02906 409.909
879 1 -41.978 0.510593 416.982 -41.978 0.510593 416.982
1172 1 -38.1059 4.18784 418.922 -38.1059 4.18784 418.922
1154 1 -49.3069 1.23818 418.797 -49.3069 1.23818 418.797
887 1 -37.8813 1.2563 415.605 -37.8813 1.2563 415.605
597 1 -37.6567 2.75232 412.287 -37.6567 2.75232 412.287
1161 1 -45.2107 1.98429 417.42 -45.2107 1.98429 417.42
1138 1 -59.6404 0.504328 417.734 -59.6404 0.504328 417.734
1149 1 -52.5383 2.71079 419.236 -52.5383 2.71079 419.236
41 1 -36.9811 2.80964 402.352 -36.9811 2.80964 402.352
888 1 -37.0171 3.47564 414.666 -37.0171 3.47564 414.666
1165 1 -42.8423 2.71876 417.921 -42.8423 2.71876 417.921
1141 1 -57.2732 1.23987 418.235 -57.2732 1.23987 418.235
1145 1 -54.9059 1.9754 418.735 -54.9059 1.9754 418.735
600 1 -36.5684 2.04035 408.031 -36.5684 2.04035 408.031
1148 1 -53.4017 0.490899 420.175 -53.4017 0.490899 420.175
882 1 -40.8891 4.22585 412.726 -40.8891 4.22585 412.726
1157 1 -47.8026 4.18082 420.237 -47.8026 4.18082 420.237
1144 1 -55.7692 4.18291 419.675 -55.7692 4.18291 419.675
602 1 -35.064 0.5557 409.47 -35.064 0.5557 409.47
1131 1 -63.0938 0.479828 421.493 -63.0938 0.479828 421.493
1755 1 -35.5468 2.65404 428.437 -35.5468 2.65404 428.437
1460 1 -40.0584 2.68061 424.118 -40.0584 2.68061 424.118
2308 1 -49.7799 3.33241 437.77 -49.7799 3.33241 437.77
2316 1 -44.8229 1.87201 435.451 -44.8229 1.87201 435.451
2312 1 -47.4127 4.06764 438.27 -47.4127 4.06764 438.27
1464 1 -37.6905 3.41531 424.619 -37.6905 3.41531 424.619
1461 1 -39.1944 0.47256 423.179 -39.1944 0.47256 423.179
2039 1 -38.3616 3.3541 434.573 -38.3616 3.3541 434.573
2613 1 -40.3114 1.84569 439.771 -40.3114 1.84569 439.771
1467 1 -35.3227 4.15002 425.119 -35.3227 4.15002 425.119
2603 1 -45.9088 2.58306 439.71 -45.9088 2.58306 439.71
1443 1 -49.5299 4.16889 422.115 -49.5299 4.16889 422.115
1748 1 -39.4184 3.4039 426.497 -39.4184 3.4039 426.497
2023 1 -47.1902 1.13686 434.951 -47.1902 1.13686 434.951
2310 1 -48.2759 1.84786 439.209 -48.2759 1.84786 439.209
1151 1 -51.0341 1.22615 420.676 -51.0341 1.22615 420.676
2303 1 -53.0103 0.377336 438.209 -53.0103 0.377336 438.209
2299 1 -55.3775 4.06945 437.709 -55.3775 4.06945 437.709
2033 1 -41.5923 0.399385 435.012 -41.5923 0.399385 435.012
1433 1 -55.1284 0.478531 422.054 -55.1284 0.478531 422.054
1430 1 -56.8551 0.46618 423.933 -56.8551 0.46618 423.933
1426 1 -58.5817 0.453865 425.812 -58.5817 0.453865 425.812
1713 1 -60.3083 0.441588 427.692 -60.3083 0.441588 427.692
1710 1 -62.0349 0.429344 429.571 -62.0349 0.429344 429.571
2330 1 -36.2176 2.59277 438.392 -36.2176 2.59277 438.392
1160 1 -45.4345 0.488074 420.738 -45.4345 0.488074 420.738
1447 1 -47.1621 0.476382 422.616 -47.1621 0.476382 422.616
1444 1 -48.8892 0.464418 424.494 -48.8892 0.464418 424.494
1730 1 -50.6161 0.452291 426.373 -50.6161 0.452291 426.373
1727 1 -52.3429 0.440084 428.252 -52.3429 0.440084 428.252
1724 1 -54.0695 0.427841 430.132 -54.0695 0.427841 430.132
2008 1 -55.7961 0.415586 432.011 -55.7961 0.415586 432.011
2006 1 -57.5225 0.403334 433.89 -57.5225 0.403334 433.89
1458 1 -40.9223 0.461165 425.057 -40.9223 0.461165 425.057
1743 1 -42.6498 0.449567 426.935 -42.6498 0.449567 426.935
1740 1 -44.3771 0.437771 428.814 -44.3771 0.437771 428.814
2026 1 -46.1041 0.425822 430.693 -46.1041 0.425822 430.693
2022 1 -47.8308 0.413769 432.572 -47.8308 0.413769 432.572
2019 1 -49.5574 0.401652 434.451 -49.5574 0.401652 434.451
2309 1 -48.9167 1.12475 436.83 -48.9167 1.12475 436.83
1137 1 -59.8631 3.43505 421.054 -59.8631 3.43505 421.054
1421 1 -61.5898 3.42279 422.933 -61.5898 3.42279 422.933
1439 1 -51.8976 3.43376 421.615 -51.8976 3.43376 421.615
1435 1 -53.6243 3.42147 423.494 -53.6243 3.42147 423.494
1432 1 -55.351 3.40915 425.373 -55.351 3.40915 425.373
1719 1 -57.0776 3.39685 427.252 -57.0776 3.39685 427.252
1716 1 -58.8042 3.38456 429.131 -58.8042 3.38456 429.131
2001 1 -60.5307 3.3723 431.011 -60.5307 3.3723 431.011
1998 1 -62.2572 3.36006 432.89 -62.2572 3.36006 432.89
2323 1 -40.0885 3.34224 436.452 -40.0885 3.34224 436.452
1453 1 -43.9304 3.43071 422.177 -43.9304 3.43071 422.177
1450 1 -45.6579 3.41906 424.056 -45.6579 3.41906 424.056
1446 1 -47.3851 3.40717 425.934 -47.3851 3.40717 425.934
1732 1 -49.1121 3.39511 427.813 -49.1121 3.39511 427.813
1729 1 -50.8388 3.38296 429.692 -50.8388 3.38296 429.692
2014 1 -52.5655 3.37076 431.571 -52.5655 3.37076 431.571
2011 1 -54.292 3.35854 433.45 -54.292 3.35854 433.45
1745 1 -41.1459 3.39232 428.375 -41.1459 3.39232 428.375
1742 1 -42.8731 3.38055 430.254 -42.8731 3.38055 430.254
2028 1 -44.6001 3.36863 432.132 -44.6001 3.36863 432.132
2025 1 -46.3269 3.35662 434.011 -46.3269 3.35662 434.011
1427 1 -58.3591 1.95062 422.493 -58.3591 1.95062 422.493
1424 1 -60.0857 1.93832 424.373 -60.0857 1.93832 424.373
1711 1 -61.8124 1.92608 426.252 -61.8124 1.92608 426.252
2322 1 -40.9519 1.12254 437.391 -40.9519 1.12254 437.391
1750 1 -37.9145 1.91922 427.937 -37.9145 1.91922 427.937
1155 1 -48.6663 1.96117 421.176 -48.6663 1.96117 421.176
1441 1 -50.3934 1.94911 423.055 -50.3934 1.94911 423.055
1438 1 -52.1202 1.9369 424.934 -52.1202 1.9369 424.934
1725 1 -53.847 1.92464 426.813 -53.847 1.92464 426.813
1722 1 -55.5736 1.91235 428.692 -55.5736 1.91235 428.692
1718 1 -57.3001 1.90008 430.571 -57.3001 1.90008 430.571
2003 1 -59.0266 1.88781 432.45 -59.0266 1.88781 432.45
2000 1 -60.753 1.87557 434.33 -60.753 1.87557 434.33
1459 1 -40.6984 1.9573 421.739 -40.6984 1.9573 421.739
1455 1 -42.4263 1.94592 423.617 -42.4263 1.94592 423.617
1452 1 -44.1539 1.9343 425.495 -44.1539 1.9343 425.495
1737 1 -45.8811 1.92246 427.374 -45.8811 1.92246 427.374
1735 1 -47.608 1.91047 429.253 -47.608 1.91047 429.253
2020 1 -49.3348 1.89837 431.132 -49.3348 1.89837 431.132
2017 1 -51.0614 1.88621 433.011 -51.0614 1.88621 433.011
2034 1 -41.3692 1.89589 431.693 -41.3692 1.89589 431.693
2031 1 -43.0962 1.884 433.572 -43.0962 1.884 433.572
2029 1 -43.9596 4.09175 434.512 -43.9596 4.09175 434.512
1146 1 -54.2651 2.69844 421.115 -54.2651 2.69844 421.115
1431 1 -55.9918 2.68608 422.994 -55.9918 2.68608 422.994
1428 1 -57.7184 2.67374 424.873 -57.7184 2.67374 424.873
1715 1 -59.445 2.66145 426.752 -59.445 2.66145 426.752
1712 1 -61.1716 2.64919 428.631 -61.1716 2.64919 428.631
1708 1 -62.8981 2.63696 430.511 -62.8981 2.63696 430.511
1747 1 -39.642 1.90764 429.815 -39.642 1.90764 429.815
1449 1 -46.2984 2.696 421.677 -46.2984 2.696 421.677
1445 1 -48.0257 2.68415 423.555 -48.0257 2.68415 423.555
1442 1 -49.7527 2.6721 425.434 -49.7527 2.6721 425.434
1728 1 -51.4795 2.65992 427.313 -51.4795 2.65992 427.313
1726 1 -53.2062 2.64769 429.192 -53.2062 2.64769 429.192
2010 1 -54.9328 2.63544 431.071 -54.9328 2.63544 431.071
2007 1 -56.6593 2.62319 432.95 -56.6593 2.62319 432.95
1456 1 -41.7861 2.66912 425.996 -41.7861 2.66912 425.996
1741 1 -43.5135 2.65742 427.874 -43.5135 2.65742 427.874
1738 1 -45.2406 2.64554 429.753 -45.2406 2.64554 429.753
2024 1 -46.9675 2.63353 431.632 -46.9675 2.63353 431.632
2021 1 -48.6941 2.62144 433.511 -48.6941 2.62144 433.511
2035 1 -40.7289 2.61906 434.073 -40.7289 2.61906 434.073
1754 1 -36.1867 1.93064 426.058 -36.1867 1.93064 426.058
1423 1 -60.7264 1.21518 421.993 -60.7264 1.21518 421.993
1420 1 -62.4531 1.20295 423.873 -62.4531 1.20295 423.873
2044 1 -35.1307 1.88127 434.135 -35.1307 1.88127 434.135
1437 1 -52.761 1.2139 422.554 -52.761 1.2139 422.554
1434 1 -54.4877 1.20159 424.433 -54.4877 1.20159 424.433
1721 1 -56.2143 1.18927 426.313 -56.2143 1.18927 426.313
1717 1 -57.9409 1.17697 428.192 -57.9409 1.17697 428.192
1714 1 -59.6675 1.1647 430.071 -59.6675 1.1647 430.071
1999 1 -61.394 1.15245 431.95 -61.394 1.15245 431.95
1997 1 -63.1204 1.14023 433.83 -63.1204 1.14023 433.83
1164 1 -43.0664 1.2227 421.238 -43.0664 1.2227 421.238
1451 1 -44.7942 1.21119 423.116 -44.7942 1.21119 423.116
1448 1 -46.5216 1.19941 424.995 -46.5216 1.19941 424.995
1734 1 -48.2486 1.18743 426.874 -48.2486 1.18743 426.874
1731 1 -49.9755 1.17532 428.753 -49.9755 1.17532 428.753
2016 1 -51.7022 1.16314 430.632 -51.7022 1.16314 430.632
2012 1 -53.4287 1.15092 432.511 -53.4287 1.15092 432.511
2009 1 -55.1552 1.1387 434.39 -55.1552 1.1387 434.39
1746 1 -40.2822 1.18441 427.436 -40.2822 1.18441 427.436
1744 1 -42.0095 1.17273 429.314 -42.0095 1.17273 429.314
2030 1 -43.7366 1.16088 431.193 -43.7366 1.16088 431.193
2027 1 -45.4635 1.14891 433.072 -45.4635 1.14891 433.072
2325 1 -39.2251 1.13446 435.512 -39.2251 1.13446 435.512
1749 1 -38.7783 4.12718 428.876 -38.7783 4.12718 428.876
1425 1 -59.2224 4.15819 423.433 -59.2224 4.15819 423.433
1736 1 -46.7446 4.13021 428.313 -46.7446 4.13021 428.313
1142 1 -56.6325 1.96298 420.614 -56.6325 1.96298 420.614
1720 1 -56.4369 4.11994 429.631 -56.4369 4.11994 429.631
2005 1 -58.1634 4.10767 431.511 -58.1634 4.10767 431.511
2002 1 -59.8898 4.09541 433.39 -59.8898 4.09541 433.39
1169 1 -39.8343 4.17665 420.8 -39.8343 4.17665 420.8
1723 1 -54.7103 4.13222 427.752 -54.7103 4.13222 427.752
1440 1 -51.2568 4.15674 423.994 -51.2568 4.15674 423.994
1733 1 -48.4715 4.11815 430.192 -48.4715 4.11815 430.192
2018 1 -50.1981 4.10602 432.071 -50.1981 4.10602 432.071
2015 1 -51.9247 4.09385 433.951 -51.9247 4.09385 433.951
2036 1 -40.5057 4.11551 430.754 -40.5057 4.11551 430.754
2032 1 -42.2327 4.10369 432.633 -42.2327 4.10369 432.633
2326 1 -38.5847 1.85765 437.892 -38.5847 1.85765 437.892
1752 1 -37.0506 4.13868 426.997 -37.0506 4.13868 426.997
1457 1 -41.5624 4.16536 422.678 -41.5624 4.16536 422.678
2043 1 -35.7707 1.15793 431.755 -35.7707 1.15793 431.755
2286 1 -62.4794 1.86334 436.209 -62.4794 1.86334 436.209
2319 1 -42.6784 1.11053 439.27 -42.6784 1.11053 439.27
1436 1 -52.9836 4.1445 425.873 -52.9836 4.1445 425.873
1422 1 -60.9491 4.14592 425.312 -60.9491 4.14592 425.312
1173 1 -37.4662 0.483805 421.301 -37.4662 0.483805 421.301
2293 1 -58.6079 1.11425 438.149 -58.6079 1.11425 438.149
2289 1 -60.9752 0.378868 437.649 -60.9752 0.378868 437.649
2295 1 -57.1037 4.05726 439.588 -57.1037 4.05726 439.588
1465 1 -36.8265 1.20722 423.68 -36.8265 1.20722 423.68
2315 1 -45.0456 0.37537 438.77 -45.0456 0.37537 438.77
2331 1 -35.9943 4.08914 435.074 -35.9943 4.08914 435.074
2297 1 -56.2406 1.84963 438.649 -56.2406 1.84963 438.649
2324 1 -39.4481 4.06541 438.831 -39.4481 4.06541 438.831
2306 1 -50.6431 1.11262 438.709 -50.6431 1.11262 438.709
2285 1 -62.7015 0.366665 439.528 -62.7015 0.366665 439.528
1462 1 -38.5545 1.1959 425.558 -38.5545 1.1959 425.558
1751 1 -37.2745 2.64254 430.316 -37.2745 2.64254 430.316
2329 1 -36.8578 1.86952 436.013 -36.8578 1.86952 436.013
2042 1 -36.6344 3.36584 432.695 -36.6344 3.36584 432.695
2041 1 -37.498 1.14627 433.634 -37.498 1.14627 433.634
2593 1 -51.5062 3.32028 439.649 -51.5062 3.32028 439.649
2328 1 -37.081 0.373092 439.332 -37.081 0.373092 439.332
2301 1 -53.8734 2.58498 439.149 -53.8734 2.58498 439.149
1466 1 -35.9624 3.42657 422.741 -35.9624 3.42657 422.741
2298 1 -56.0184 3.34631 435.33 -56.0184 3.34631 435.33
2321 1 -41.8152 3.33027 438.331 -41.8152 3.33027 438.331
2313 1 -46.5495 1.85995 437.33 -46.5495 1.85995 437.33
2294 1 -57.7447 3.33408 437.209 -57.7447 3.33408 437.209
2304 1 -52.1471 2.59715 437.27 -52.1471 2.59715 437.27
2300 1 -54.5143 1.86183 436.769 -54.5143 1.86183 436.769
2290 1 -60.112 2.5987 436.709 -60.112 2.5987 436.709
2318 1 -43.319 0.387411 436.891 -43.319 0.387411 436.891
2327 1 -37.7213 4.07733 436.952 -37.7213 4.07733 436.952
2004 1 -58.3857 2.61094 434.83 -58.3857 2.61094 434.83
2013 1 -52.7879 1.87403 434.89 -52.7879 1.87403 434.89
2288 1 -61.6162 4.08318 435.269 -61.6162 4.08318 435.269
2037 1 -39.8654 0.411259 433.133 -39.8654 0.411259 433.133
1739 1 -45.0175 4.14213 426.435 -45.0175 4.14213 426.435
1753 1 -36.4107 0.434582 429.376 -36.4107 0.434582 429.376
2307 1 -50.4207 2.60931 435.39 -50.4207 2.60931 435.39
2314 1 -45.6862 4.07972 436.391 -45.6862 4.07972 436.391
2040 1 -38.1382 0.422999 431.255 -38.1382 0.422999 431.255
2320 1 -42.4557 2.60714 435.951 -42.4557 2.60714 435.951
2292 1 -59.2489 0.391092 435.769 -59.2489 0.391092 435.769
2311 1 -48.0535 3.34453 435.89 -48.0535 3.34453 435.89
2302 1 -53.6511 4.08165 435.83 -53.6511 4.08165 435.83
2296 1 -56.8816 1.12647 436.269 -56.8816 1.12647 436.269
1463 1 -38.3303 2.69192 422.24 -38.3303 2.69192 422.24
2287 1 -61.8383 2.58649 438.588 -61.8383 2.58649 438.588
2291 1 -59.471 3.32187 439.088 -59.471 3.32187 439.088
2317 1 -44.1823 2.59512 437.83 -44.1823 2.59512 437.83
2038 1 -39.0018 2.63087 432.194 -39.0018 2.63087 432.194
2305 1 -51.2839 0.389501 436.33 -51.2839 0.389501 436.33
2332 1 -35.3541 0.384974 437.453 -35.3541 0.384974 437.453
1709 1 -62.6757 4.13369 427.192 -62.6757 4.13369 427.192
1468 1 -35.0982 1.21844 421.802 -35.0982 1.21844 421.802
1454 1 -43.2901 4.15387 424.556 -43.2901 4.15387 424.556
1429 1 -57.4958 4.17052 421.554 -57.4958 4.17052 421.554
1133 1 -62.2304 2.69964 420.554 -62.2304 2.69964 420.554
1175 1 -36.6021 2.70313 420.362 -36.6021 2.70313 420.362
2616 1 -38.167 1.08427 443.59 -38.167 1.08427 443.59
2901 1 -39.8932 1.07221 445.469 -39.8932 1.07221 445.469
2907 1 -36.6633 4.02718 445.03 -36.6633 4.02718 445.03
3194 1 -37.7486 0.310754 449.289 -37.7486 0.310754 449.289
2587 1 -54.7365 0.365176 440.088 -54.7365 0.365176 440.088
2597 1 -49.1391 4.05553 440.149 -49.1391 4.05553 440.149
2584 1 -56.4627 0.353031 441.968 -56.4627 0.353031 441.968
2581 1 -58.1888 0.34091 443.847 -58.1888 0.34091 443.847
2868 1 -59.9148 0.328811 445.726 -59.9148 0.328811 445.726
2865 1 -61.6407 0.316729 447.606 -61.6407 0.316729 447.606
2601 1 -46.7719 0.36329 440.649 -46.7719 0.36329 440.649
2598 1 -48.4982 0.351199 442.528 -48.4982 0.351199 442.528
2885 1 -50.2243 0.339122 444.408 -50.2243 0.339122 444.408
2882 1 -51.9503 0.327085 446.287 -51.9503 0.327085 446.287
2879 1 -53.6762 0.315108 448.167 -53.6762 0.315108 448.167
2612 1 -40.5339 0.349082 443.09 -40.5339 0.349082 443.09
2898 1 -42.2601 0.33701 444.969 -42.2601 0.33701 444.969
2895 1 -43.9862 0.324929 446.848 -43.9862 0.324929 446.848
3180 1 -45.712 0.312869 448.727 -45.712 0.312869 448.727
2576 1 -61.1972 3.30968 440.968 -61.1972 3.30968 440.968
2574 1 -62.9234 3.29751 442.847 -62.9234 3.29751 442.847
2589 1 -53.2324 3.30816 441.528 -53.2324 3.30816 441.528
2586 1 -54.9585 3.29605 443.408 -54.9585 3.29605 443.408
2874 1 -56.6846 3.28399 445.287 -56.6846 3.28399 445.287
2871 1 -58.4105 3.27196 447.166 -58.4105 3.27196 447.166
3155 1 -60.1364 3.25995 449.045 -60.1364 3.25995 449.045
2607 1 -43.5417 3.31824 440.21 -43.5417 3.31824 440.21
2604 1 -45.268 3.30617 442.089 -45.268 3.30617 442.089
2600 1 -46.9941 3.29408 443.968 -46.9941 3.29408 443.968
2887 1 -48.7202 3.28201 445.848 -48.7202 3.28201 445.848
2884 1 -50.4462 3.26999 447.727 -50.4462 3.26999 447.727
3168 1 -52.1721 3.25802 449.606 -52.1721 3.25802 449.606
2900 1 -40.7562 3.27989 446.409 -40.7562 3.27989 446.409
2897 1 -42.4822 3.26781 448.288 -42.4822 3.26781 448.288
2582 1 -57.9668 1.83745 440.528 -57.9668 1.83745 440.528
2579 1 -59.693 1.82528 442.407 -59.693 1.82528 442.407
2866 1 -61.419 1.81314 444.287 -61.419 1.81314 444.287
2578 1 -60.3341 1.10205 440.028 -60.3341 1.10205 440.028
2595 1 -50.0022 1.83575 441.089 -50.0022 1.83575 441.089
2592 1 -51.7283 1.82366 442.968 -51.7283 1.82366 442.968
2880 1 -53.4544 1.81159 444.847 -53.4544 1.81159 444.847
2877 1 -55.1804 1.79958 446.727 -55.1804 1.79958 446.727
2873 1 -56.9063 1.78762 448.606 -56.9063 1.78762 448.606
2609 1 -42.0378 1.83366 441.65 -42.0378 1.83366 441.65
2606 1 -43.764 1.82159 443.529 -43.764 1.82159 443.529
2892 1 -45.4901 1.8095 445.408 -45.4901 1.8095 445.408
2890 1 -47.2161 1.79744 447.287 -47.2161 1.79744 447.287
3174 1 -48.942 1.78542 449.167 -48.942 1.78542 449.167
2618 1 -37.3038 3.30402 442.65 -37.3038 3.30402 442.65
2585 1 -55.5996 2.57283 441.028 -55.5996 2.57283 441.028
2583 1 -57.3257 2.56069 442.907 -57.3257 2.56069 442.907
2870 1 -59.0518 2.54858 444.787 -59.0518 2.54858 444.787
2867 1 -60.7778 2.5365 446.666 -60.7778 2.5365 446.666
2863 1 -62.5037 2.52442 448.545 -62.5037 2.52442 448.545
2599 1 -47.6351 2.57097 441.589 -47.6351 2.57097 441.589
2596 1 -49.3612 2.55888 443.468 -49.3612 2.55888 443.468
2883 1 -51.0873 2.54682 445.347 -51.0873 2.54682 445.347
2881 1 -52.8133 2.53481 447.227 -52.8133 2.53481 447.227
3164 1 -54.5392 2.52287 449.106 -54.5392 2.52287 449.106
2610 1 -41.3971 2.55678 444.029 -41.3971 2.55678 444.029
2896 1 -43.1232 2.5447 445.908 -43.1232 2.5447 445.908
2893 1 -44.8491 2.53262 447.788 -44.8491 2.53262 447.788
3178 1 -46.5749 2.52058 449.667 -46.5749 2.52058 449.667
2575 1 -62.0603 1.08987 441.907 -62.0603 1.08987 441.907
2591 1 -52.3693 1.10049 440.589 -52.3693 1.10049 440.589
2588 1 -54.0955 1.08838 442.468 -54.0955 1.08838 442.468
2876 1 -55.8216 1.07629 444.347 -55.8216 1.07629 444.347
2872 1 -57.5476 1.06424 446.227 -57.5476 1.06424 446.227
2869 1 -59.2735 1.05223 448.106 -59.2735 1.05223 448.106
2605 1 -44.4048 1.09848 441.149 -44.4048 1.09848 441.149
2602 1 -46.1311 1.0864 443.029 -46.1311 1.0864 443.029
2889 1 -47.8572 1.07432 444.908 -47.8572 1.07432 444.908
2886 1 -49.5832 1.06227 446.787 -49.5832 1.06227 446.787
3170 1 -51.3091 1.05027 448.667 -51.3091 1.05027 448.667
2899 1 -41.6192 1.06012 447.348 -41.6192 1.06012 447.348
3184 1 -43.3451 1.04805 449.227 -43.3451 1.04805 449.227
2580 1 -58.8299 4.04509 441.468 -58.8299 4.04509 441.468
2577 1 -60.556 4.03294 443.347 -60.556 4.03294 443.347
2864 1 -62.2821 4.0208 445.226 -62.2821 4.0208 445.226
2862 1 -63.1451 1.80101 446.166 -63.1451 1.80101 446.166
2594 1 -50.8653 4.04343 442.028 -50.8653 4.04343 442.028
2590 1 -52.5914 4.03135 443.908 -52.5914 4.03135 443.908
2878 1 -54.3174 4.01931 445.787 -54.3174 4.01931 445.787
2875 1 -56.0434 4.00732 447.666 -56.0434 4.00732 447.666
3159 1 -57.7693 3.99539 449.546 -57.7693 3.99539 449.546
2611 1 -41.1746 4.0534 440.71 -41.1746 4.0534 440.71
2608 1 -42.9009 4.04135 442.589 -42.9009 4.04135 442.589
2894 1 -44.6271 4.02927 444.468 -44.6271 4.02927 444.468
2891 1 -46.3531 4.01719 446.348 -46.3531 4.01719 446.348
2888 1 -48.0791 4.00515 448.227 -48.0791 4.00515 448.227
2904 1 -38.3894 4.0151 446.909 -38.3894 4.0151 446.909
2621 1 -35.5773 3.31601 440.772 -35.5773 3.31601 440.772
2617 1 -37.9443 2.58084 440.271 -37.9443 2.58084 440.271
2614 1 -39.6708 2.56883 442.15 -39.6708 2.56883 442.15
2908 1 -36.0226 0.322867 447.409 -36.0226 0.322867 447.409
2619 1 -36.4406 1.09629 441.711 -36.4406 1.09629 441.711
2906 1 -36.8856 2.53054 448.349 -36.8856 2.53054 448.349
2905 1 -37.5264 1.80741 445.969 -37.5264 1.80741 445.969
2620 1 -35.8001 1.81948 444.09 -35.8001 1.81948 444.09
3190 1 -40.1153 4.00301 448.788 -40.1153 4.00301 448.788
2902 1 -39.2524 1.79532 447.849 -39.2524 1.79532 447.849
2903 1 -39.0301 3.29197 444.529 -39.0301 3.29197 444.529
2615 1 -38.8076 0.361119 441.211 -38.8076 0.361119 441.211
2909 1 -35.1596 2.54264 446.47 -35.1596 2.54264 446.47
14 1 -54.437 4.3299 399.891 -54.437 4.3299 399.891
7 1 -59.0979 2.83083 398.984 -59.0979 2.83083 398.984
25 1 -46.46 4.32234 400.365 -46.46 4.32234 400.365
38 1 -38.4791 4.27684 400.88 -38.4791 4.27684 400.88
23 1 -48.1888 4.29391 402.237 -48.1888 4.29391 402.237
287 1 -51.6407 4.26245 405.965 -51.6407 4.26245 405.965
878 1 -42.6178 4.21466 414.604 -42.6178 4.21466 414.604
579 1 -48.8593 4.23046 412.163 -48.8593 4.23046 412.163
585 1 -45.4013 4.25326 408.409 -45.4013 4.25326 408.409
290 1 -49.9165 4.27528 404.088 -49.9165 4.27528 404.088
11 1 -56.1478 4.27712 401.678 -56.1478 4.27712 401.678
595 1 -39.1606 4.23715 410.848 -39.1606 4.23715 410.848
1134 1 -62.0076 4.19633 417.234 -62.0076 4.19633 417.234
283 1 -53.3712 4.25399 407.841 -53.3712 4.25399 407.841
582 1 -47.13 4.2416 410.286 -47.13 4.2416 410.286
276 1 -57.8877 4.28486 403.534 -57.8877 4.28486 403.534
569 1 -55.1016 4.24554 409.717 -55.1016 4.24554 409.717
847 1 -60.281 4.20867 415.355 -60.281 4.20867 415.355
556 1 -63.0659 4.24698 409.155 -63.0659 4.24698 409.155
272 1 -59.6213 4.27908 405.391 -59.6213 4.27908 405.391
3 1 -60.9199 2.84167 400.668 -60.9199 2.84167 400.668
35 1 -40.2112 4.28806 402.763 -40.2112 4.28806 402.763
598 1 -37.4321 4.2486 408.97 -37.4321 4.2486 408.97
850 1 -58.5547 4.22123 413.475 -58.5547 4.22123 413.475