ITEM: TIMESTEP
0
ITEM: NUMBER OF ATOMS
4630
ITEM: BOX BOUNDS xy xz yz pp pp pp
-5.8840988501799998e+01 1.0186002035000000e+02 0.0000000000000000e+00
0.0000000000000000e+00 4.4274527100805940e+00 0.0000000000000000e+00
3.8000000000000000e+02 5.0000000000000000e+02 0.0000000000000000e+00
ITEM: ATOMS id type x y z xu yu zu
27 1 -43.0426 2.60895 398.501 -43.0426 2.60895 398.501
36 1 -37.6081 1.86037 398.418 -37.6081 1.86037 398.418
31 1 -40.6677 3.2806 398.879 -40.6677 3.2806 398.879
22 1 -46.1225 4.03601 398.998 -46.1225 4.03601 398.998
20 1 -46.9032 1.82096 399.896 -46.9032 1.82096 399.896
40 1 -35.2361 2.53485 398.801 -35.2361 2.53485 398.801
34 1 -38.3711 4.06172 399.305 -38.3711 4.06172 399.305
17 1 -49.2055 1.05852 399.481 -49.2055 1.05852 399.481
9 1 -54.5869 1.73668 399.538 -54.5869 1.73668 399.538
43 1 -32.942 3.31713 399.231 -32.942 3.31713 399.231
12 1 -52.3273 2.58454 399.994 -52.3273 2.58454 399.994
5 1 -56.9551 1.11329 399.153 -56.9551 1.11329 399.153
29 1 -41.4752 1.05575 399.774 -41.4752 1.05575 399.774
853 1 -53.5415 3.02785 414.529 -53.5415 3.02785 414.529
873 1 -42.7191 1.5482 414.354 -42.7191 1.5482 414.354
865 1 -46.6325 0.784024 415.87 -46.6325 0.784024 415.87
1174 1 -34.3078 2.22645 417.135 -34.3078 2.22645 417.135
883 1 -37.3055 0.807213 414.272 -37.3055 0.807213 414.272
863 1 -48.1315 2.28878 414.441 -48.1315 2.28878 414.441
315 1 -33.0546 1.75217 402.59 -33.0546 1.75217 402.59
307 1 -37.7833 3.19364 405.075 -37.7833 3.19364 405.075
1150 1 -48.242 0.74657 417.835 -48.242 0.74657 417.835
855 1 -52.0432 1.52331 415.958 -52.0432 1.52331 415.958
310 1 -36.1724 3.22691 403.119 -36.1724 3.22691 403.119
871 1 -43.524 3.74368 415.336 -43.524 3.74368 415.336
16 1 -49.9998 3.26219 400.382 -49.9998 3.26219 400.382
309 1 -36.2801 1.68887 406.505 -36.2801 1.68887 406.505
1156 1 -45.1339 3.70679 417.3 -45.1339 3.70679 417.3
867 1 -45.8278 3.01627 414.888 -45.8278 3.01627 414.888
1159 1 -42.8305 4.43455 417.748 -42.8305 4.43455 417.748
1168 1 -37.4177 3.69469 417.665 -37.4177 3.69469 417.665
1170 1 -36.6121 1.49894 416.684 -36.6121 1.49894 416.684
594 1 -37.0854 3.88585 407.486 -37.0854 3.88585 407.486
37 1 -36.8637 2.52467 400.718 -36.8637 2.52467 400.718
851 1 -54.3457 0.795346 415.511 -54.3457 0.795346 415.511
857 1 -51.2389 3.7559 414.976 -51.2389 3.7559 414.976
592 1 -37.8903 1.65493 408.466 -37.8903 1.65493 408.466
849 1 -55.1499 2.99016 416.494 -55.1499 2.99016 416.494
877 1 -40.415 2.27561 414.803 -40.415 2.27561 414.803
1143 1 -52.8476 3.71808 416.941 -52.8476 3.71808 416.941
1140 1 -54.4564 3.6798 418.906 -54.4564 3.6798 418.906
845 1 -57.4521 2.26268 416.047 -57.4521 2.26268 416.047
875 1 -41.2202 0.043747 415.785 -41.2202 4.4712 415.785
886 1 -35.6947 0.842513 412.31 -35.6947 0.842513 412.31
891 1 -32.5836 3.80026 411.782 -32.5836 3.80026 411.782
39 1 -35.3715 1.02717 402.135 -35.3715 1.02717 402.135
1177 1 -32.8095 0.722534 418.567 -32.8095 0.722534 418.567
1167 1 -38.2234 1.46285 418.646 -38.2234 1.46285 418.646
8 1 -55.4188 4.00491 400.547 -55.4188 4.00491 400.547
869 1 -44.329 1.51158 416.318 -44.329 1.51158 416.318
1136 1 -56.7585 2.95182 418.459 -56.7585 2.95182 418.459
1162 1 -41.3324 2.93029 419.178 -41.3324 2.93029 419.178
15 1 -50.8137 1.04584 401.407 -50.8137 1.04584 401.407
280 1 -52.4178 1.01653 403.367 -52.4178 1.01653 403.367
277 1 -54.0262 0.99286 405.326 -54.0262 0.99286 405.326
273 1 -55.6284 0.956824 407.294 -55.6284 0.956824 407.294
560 1 -57.2344 0.921209 409.26 -57.2344 0.921209 409.26
557 1 -58.8417 0.884979 411.224 -58.8417 0.884979 411.224
26 1 -43.0928 1.04413 401.75 -43.0928 1.04413 401.75
294 1 -44.7037 1.01568 403.726 -44.7037 1.01568 403.726
291 1 -46.311 0.980086 405.691 -46.311 0.980086 405.691
576 1 -47.9168 0.943155 407.655 -47.9168 0.943155 407.655
573 1 -49.5232 0.906907 409.618 -49.5232 0.906907 409.618
570 1 -51.1299 0.87003 411.582 -51.1299 0.87003 411.582
854 1 -52.7374 0.832795 413.547 -52.7374 0.832795 413.547
305 1 -38.5875 0.963101 406.054 -38.5875 0.963101 406.054
589 1 -40.1963 0.928353 408.016 -40.1963 0.928353 408.016
586 1 -41.8051 0.893029 409.979 -41.8051 0.893029 409.979
872 1 -43.414 0.857221 411.943 -43.414 0.857221 411.943
599 1 -34.0837 0.877093 410.35 -34.0837 0.877093 410.35
4 1 -57.0398 4.01534 402.452 -57.0398 4.01534 402.452
268 1 -58.6271 3.97036 404.44 -58.6271 3.97036 404.44
1152 1 -47.4372 2.97909 416.852 -47.4372 2.97909 416.852
19 1 -47.7181 4.00706 400.886 -47.7181 4.00706 400.886
286 1 -49.3171 3.97273 402.819 -49.3171 3.97273 402.819
282 1 -50.9167 3.94145 404.788 -50.9167 3.94145 404.788
279 1 -52.5231 3.91232 406.754 -52.5231 3.91232 406.754
565 1 -54.1279 3.87781 408.721 -54.1279 3.87781 408.721
563 1 -55.7347 3.84216 410.687 -55.7347 3.84216 410.687
846 1 -57.3425 3.80594 412.653 -57.3425 3.80594 412.653
32 1 -39.986 4.00606 401.246 -39.986 4.00606 401.246
300 1 -41.5952 3.97286 403.198 -41.5952 3.97286 403.198
297 1 -43.2017 3.93799 405.159 -43.2017 3.93799 405.159
293 1 -44.8084 3.90292 407.121 -44.8084 3.90292 407.121
578 1 -46.4154 3.86687 409.085 -46.4154 3.86687 409.085
575 1 -48.0229 3.83045 411.048 -48.0229 3.83045 411.048
860 1 -49.6307 3.7934 413.012 -49.6307 3.7934 413.012
591 1 -38.6952 3.85123 409.447 -38.6952 3.85123 409.447
588 1 -40.3047 3.8159 411.41 -40.3047 3.8159 411.41
874 1 -41.9143 3.78004 413.373 -41.9143 3.78004 413.373
10 1 -53.925 2.51426 401.944 -53.925 2.51426 401.944
274 1 -55.5338 2.50429 403.893 -55.5338 2.50429 403.893
271 1 -57.1291 2.46399 405.866 -57.1291 2.46399 405.866
558 1 -58.7346 2.42816 407.831 -58.7346 2.42816 407.831
24 1 -44.6205 2.56144 400.381 -44.6205 2.56144 400.381
21 1 -46.2188 2.52081 402.307 -46.2188 2.52081 402.307
288 1 -47.816 2.48336 404.264 -47.816 2.48336 404.264
285 1 -49.4181 2.44486 406.226 -49.4181 2.44486 406.226
571 1 -51.0234 2.40988 408.188 -51.0234 2.40988 408.188
568 1 -52.629 2.37374 410.152 -52.629 2.37374 410.152
852 1 -54.236 2.33715 412.117 -54.236 2.33715 412.117
848 1 -55.8439 2.30031 414.082 -55.8439 2.30031 414.082
306 1 -38.4804 2.49808 402.664 -38.4804 2.49808 402.664
302 1 -40.0904 2.46675 404.622 -40.0904 2.46675 404.622
299 1 -41.6981 2.4326 406.585 -41.6981 2.4326 406.585
583 1 -43.3061 2.39771 408.549 -43.3061 2.39771 408.549
581 1 -44.9143 2.362 410.513 -44.9143 2.362 410.513
866 1 -46.5228 2.32573 412.477 -46.5228 2.32573 412.477
880 1 -38.8049 2.31151 412.841 -38.8049 2.31151 412.841
312 1 -34.6688 1.72158 404.545 -34.6688 1.72158 404.545
2 1 -58.563 1.12665 401.062 -58.563 1.12665 401.062
13 1 -51.608 3.24072 402.366 -51.608 3.24072 402.366
278 1 -53.2217 3.21924 404.338 -53.2217 3.21924 404.338
275 1 -54.8263 3.18881 406.307 -54.8263 3.18881 406.307
562 1 -56.4307 3.15259 408.276 -56.4307 3.15259 408.276
559 1 -58.038 3.11697 410.242 -58.038 3.11697 410.242
1166 1 -39.029 3.65834 419.627 -39.029 3.65834 419.627
889 1 -33.3894 1.56936 412.762 -33.3894 1.56936 412.762
28 1 -42.2918 3.27288 400.798 -42.2918 3.27288 400.798
296 1 -43.9024 3.24469 402.749 -43.9024 3.24469 402.749
292 1 -45.5085 3.21192 404.71 -45.5085 3.21192 404.71
289 1 -47.1138 3.17547 406.674 -47.1138 3.17547 406.674
574 1 -48.7199 3.13887 408.637 -48.7199 3.13887 408.637
572 1 -50.3265 3.10233 410.6 -50.3265 3.10233 410.6
856 1 -51.9335 3.06517 412.564 -51.9335 3.06517 412.564
303 1 -39.3923 3.15942 407.035 -39.3923 3.15942 407.035
587 1 -41.0008 3.12442 408.998 -41.0008 3.12442 408.998
584 1 -42.6095 3.08889 410.961 -42.6095 3.08889 410.961
870 1 -44.2186 3.05286 412.925 -44.2186 3.05286 412.925
6 1 -56.2375 1.81238 401.465 -56.2375 1.81238 401.465
270 1 -57.8277 1.77575 403.449 -57.8277 1.77575 403.449
890 1 -32.696 2.26159 415.174 -32.696 2.26159 415.174
18 1 -48.5127 1.77684 401.848 -48.5127 1.77684 401.848
284 1 -50.1138 1.74439 403.81 -50.1138 1.74439 403.81
281 1 -51.7202 1.71424 405.774 -51.7202 1.71424 405.774
567 1 -53.3256 1.68196 407.738 -53.3256 1.68196 407.738
564 1 -54.9311 1.64631 409.705 -54.9311 1.64631 409.705
561 1 -56.5386 1.61048 411.67 -56.5386 1.61048 411.67
844 1 -58.1464 1.57366 413.635 -58.1464 1.57366 413.635
33 1 -39.1936 1.81068 400.293 -39.1936 1.81068 400.293
30 1 -40.7978 1.77317 402.212 -40.7978 1.77317 402.212
298 1 -42.3988 1.74096 404.174 -42.3988 1.74096 404.174
295 1 -44.0049 1.70681 406.139 -44.0049 1.70681 406.139
580 1 -45.6118 1.67117 408.103 -45.6118 1.67117 408.103
577 1 -47.2191 1.63495 410.066 -47.2191 1.63495 410.066
862 1 -48.8267 1.59826 412.03 -48.8267 1.59826 412.03
590 1 -39.4999 1.61993 410.428 -39.4999 1.61993 410.428
876 1 -41.1094 1.58431 412.391 -41.1094 1.58431 412.391
1163 1 -40.527 0.734951 418.196 -40.527 0.734951 418.196
1153 1 -46.7439 3.66935 419.264 -46.7439 3.66935 419.264
311 1 -35.4739 3.91937 405.525 -35.4739 3.91937 405.525
42 1 -33.7632 1.066 400.219 -33.7632 1.066 400.219
1135 1 -57.5628 0.718661 419.442 -57.5628 0.718661 419.442
1171 1 -35.9196 2.19073 419.096 -35.9196 2.19073 419.096
1139 1 -55.2609 1.44672 419.888 -55.2609 1.44672 419.888
601 1 -33.278 3.10777 409.37 -33.278 3.10777 409.37
313 1 -33.8594 3.95217 403.564 -33.8594 3.95217 403.564
858 1 -50.4347 1.56095 413.994 -50.4347 1.56095 413.994
868 1 -45.0232 0.820917 413.907 -45.0232 0.820917 413.907
1147 1 -50.5449 4.44611 417.388 -50.5449 4.44611 417.388
843 1 101.751 3.76851 414.618 -58.9503 3.76851 414.618
593 1 -37.1947 2.34685 410.879 -37.1947 2.34685 410.879
308 1 -36.9779 0.996038 404.093 -36.9779 0.996038 404.093
861 1 -48.9359 0.0563716 415.423 -48.9359 4.48382 415.423
1158 1 -43.6357 2.2023 418.729 -43.6357 2.2023 418.729
884 1 -36.5001 3.03867 413.291 -36.5001 3.03867 413.291
881 1 -38.1108 3.00307 415.253 -38.1108 3.00307 415.253
885 1 -35.8065 3.7305 415.703 -35.8065 3.7305 415.703
859 1 -49.7404 2.25129 416.405 -49.7404 2.25129 416.405
596 1 -35.5844 2.38147 408.918 -35.5844 2.38147 408.918
879 1 -38.9162 0.771342 416.234 -38.9162 0.771342 416.234
1172 1 -35.1137 -0.00506389 418.115 -35.1137 4.42239 418.115
1154 1 -45.9389 1.47441 418.282 -45.9389 1.47441 418.282
887 1 -35.0008 1.53447 414.723 -35.0008 1.53447 414.723
597 1 -34.8893 3.07363 411.33 -34.8893 3.07363 411.33
1161 1 -42.0253 2.23921 416.766 -42.0253 2.23921 416.766
1138 1 -55.9542 0.757353 417.476 -55.9542 0.757353 417.476
1149 1 -49.0468 2.94138 418.817 -49.0468 2.94138 418.817
41 1 -34.5588 3.25988 401.171 -34.5588 3.25988 401.171
888 1 -34.1952 3.76573 413.742 -34.1952 3.76573 413.742
1165 1 -39.7216 2.96694 417.215 -39.7216 2.96694 417.215
1141 1 -53.652 1.48529 417.923 -53.652 1.48529 417.923
1145 1 -51.3495 2.21336 418.37 -51.3495 2.21336 418.37
600 1 -33.9734 2.41514 406.958 -33.9734 2.41514 406.958
1148 1 -49.8516 0.70861 419.799 -49.8516 0.70861 419.799
882 1 -37.9998 0.115527 411.86 -37.9998 4.54298 411.86
1157 1 -44.4409 4.39737 419.711 -44.4409 4.39737 419.711
1144 1 -52.1542 4.40794 419.352 -52.1542 4.40794 419.352
602 1 -32.4719 0.910765 408.39 -32.4719 0.910765 408.39
1755 1 -32.3499 2.76353 427.762 -32.3499 2.76353 427.762
1460 1 -36.8399 2.84615 423.469 -36.8399 2.84615 423.469
2308 1 -45.8114 3.30534 437.664 -45.8114 3.30534 437.664
2316 1 -41.0978 1.88176 435.164 -41.0978 1.88176 435.164
2312 1 -43.5111 4.03585 438.111 -43.5111 4.03585 438.111
1464 1 -34.5368 3.57462 423.919 -34.5368 3.57462 423.919
1461 1 -36.0339 0.650731 422.488 -36.0339 0.650731 422.488
2039 1 -34.8854 3.38108 434.097 -34.8854 3.38108 434.097
2613 1 -36.6111 1.80048 439.454 -36.6111 1.80048 439.454
1467 1 -32.2334 4.30299 424.37 -32.2334 4.30299 424.37
2603 1 -42.015 2.53277 439.541 -42.015 2.53277 439.541
1443 1 -46.0513 4.35966 421.675 -46.0513 4.35966 421.675
1748 1 -36.1491 3.53795 425.881 -36.1491 3.53795 425.881
2023 1 -43.3985 1.15146 434.716 -43.3985 1.15146 434.716
2310 1 -44.315 1.80209 439.094 -44.315 1.80209 439.094
1151 1 -47.5489 1.43671 420.246 -47.5489 1.43671 420.246
2303 1 -48.9159 0.341199 438.2 -48.9159 0.341199 438.2
2299 1 -51.2168 4.03857 437.753 -51.2168 4.03857 437.753
2033 1 -37.992 0.417929 434.63 -37.992 0.417929 434.63
1433 1 -51.4612 0.67013 421.764 -51.4612 0.67013 421.764
1430 1 -53.0707 0.631129 423.729 -53.0707 0.631129 423.729
1426 1 -54.6801 0.591664 425.694 -54.6801 0.591664 425.694
1713 1 -56.2893 0.55185 427.66 -56.2893 0.55185 427.66
1710 1 -57.8985 0.511834 429.626 -57.8985 0.511834 429.626
2330 1 -32.7009 2.57022 437.939 -32.7009 2.57022 437.939
1160 1 -42.1378 0.698037 420.159 -42.1378 0.698037 420.159
1447 1 -43.7486 0.660585 422.123 -43.7486 0.660585 422.123
1444 1 -45.3592 0.622586 424.087 -45.3592 0.622586 424.087
1730 1 -46.9695 0.584041 426.051 -46.9695 0.584041 426.051
1727 1 -48.5795 0.544977 428.016 -48.5795 0.544977 428.016
1724 1 -50.1891 0.505468 429.981 -50.1891 0.505468 429.981
2008 1 -51.7983 0.465629 431.946 -51.7983 0.465629 431.946
2006 1 -53.4071 0.425604 433.912 -53.4071 0.425604 433.912
1458 1 -37.6459 0.613963 424.45 -37.6459 0.613963 424.45
1743 1 -39.2576 0.576592 426.413 -39.2576 0.576592 426.413
1740 1 -40.8689 0.538608 428.376 -40.8689 0.538608 428.376
2026 1 -42.4797 0.500021 430.339 -42.4797 0.500021 430.339
2022 1 -44.0899 0.46088 432.304 -44.0899 0.46088 432.304
2019 1 -45.6993 0.421274 434.269 -45.6993 0.421274 434.269
2309 1 -45.0073 1.11163 436.681 -45.0073 1.11163 436.681
1137 1 -56.0654 3.64095 420.871 -56.0654 3.64095 420.871
1421 1 -57.6743 3.60155 422.837 -57.6743 3.60155 422.837
1439 1 -48.3539 3.63139 421.228 -48.3539 3.63139 421.228
1435 1 -49.9638 3.59288 423.193 -49.9638 3.59288 423.193
1432 1 -51.5735 3.55386 425.158 -51.5735 3.55386 425.158
1719 1 -53.183 3.51439 427.123 -53.183 3.51439 427.123
1716 1 -54.7923 3.47458 429.089 -54.7923 3.47458 429.089
2001 1 -56.4014 3.43457 431.054 -56.4014 3.43457 431.054
1998 1 -58.0104 3.39453 433.02 -58.0104 3.39453 433.02
2323 1 -36.4965 3.34251 436.06 -36.4965 3.34251 436.06
1453 1 -40.6402 3.62144 421.589 -40.6402 3.62144 421.589
1450 1 -42.2513 3.584 423.553 -42.2513 3.584 423.553
1446 1 -43.8622 3.54599 425.516 -43.8622 3.54599 425.516
1732 1 -45.4727 3.50742 427.48 -45.4727 3.50742 427.48
1729 1 -47.0828 3.46833 429.445 -47.0828 3.46833 429.445
2014 1 -48.6923 3.42879 431.41 -48.6923 3.42879 431.41
2011 1 -50.3014 3.38892 433.375 -50.3014 3.38892 433.375
1745 1 -37.7612 3.50064 427.843 -37.7612 3.50064 427.843
1742 1 -39.3727 3.46269 429.806 -39.3727 3.46269 429.806
2028 1 -40.9836 3.42411 431.769 -40.9836 3.42411 431.769
2025 1 -42.5937 3.38495 433.734 -42.5937 3.38495 433.734
1427 1 -54.568 2.13598 422.3 -54.568 2.13598 422.3
1424 1 -56.1772 2.09654 424.265 -56.1772 2.09654 424.265
1711 1 -57.7864 2.05672 426.231 -57.7864 2.05672 426.231
2322 1 -37.3016 1.10925 437.042 -37.3016 1.10925 437.042
1750 1 -34.6526 2.03465 427.312 -34.6526 2.03465 427.312
1155 1 -45.2461 2.16486 420.693 -45.2461 2.16486 420.693
1441 1 -46.8564 2.12688 422.657 -46.8564 2.12688 422.657
1438 1 -48.4665 2.08835 424.622 -48.4665 2.08835 424.622
1725 1 -50.0764 2.04931 426.587 -50.0764 2.04931 426.587
1722 1 -51.686 2.00983 428.552 -51.686 2.00983 428.552
1718 1 -53.2953 1.97001 430.518 -53.2953 1.97001 430.518
2003 1 -54.9043 1.93 432.483 -54.9043 1.93 432.483
2000 1 -56.513 1.88996 434.449 -56.513 1.88996 434.449
1459 1 -37.5313 2.15445 421.058 -37.5313 2.15445 421.058
1455 1 -39.1429 2.11761 423.02 -39.1429 2.11761 423.02
1452 1 -40.7543 2.08019 424.982 -40.7543 2.08019 424.982
1737 1 -42.3654 2.04218 426.946 -42.3654 2.04218 426.946
1735 1 -43.9761 2.0036 428.91 -43.9761 2.0036 428.91
2020 1 -45.5862 1.96448 430.874 -45.5862 1.96448 430.874
2017 1 -47.1957 1.92491 432.839 -47.1957 1.92491 432.839
2034 1 -37.8767 1.95951 431.236 -37.8767 1.95951 431.236
2031 1 -39.4877 1.92094 433.199 -39.4877 1.92094 433.199
2029 1 -40.2928 4.11515 434.181 -40.2928 4.11515 434.181
1146 1 -50.6564 2.90316 420.781 -50.6564 2.90316 420.781
1431 1 -52.266 2.86442 422.746 -52.266 2.86442 422.746
1428 1 -53.8754 2.82517 424.712 -53.8754 2.82517 424.712
1715 1 -55.4847 2.78552 426.677 -55.4847 2.78552 426.677
1712 1 -57.0939 2.74558 428.643 -57.0939 2.74558 428.643
1708 1 -58.7031 2.70553 430.609 -58.7031 2.70553 430.609
1747 1 -36.265 1.99742 429.273 -36.265 1.99742 429.273
1449 1 -42.9432 2.89311 421.141 -42.9432 2.89311 421.141
1445 1 -44.5539 2.85538 423.105 -44.5539 2.85538 423.105
1442 1 -46.1644 2.81711 425.069 -46.1644 2.81711 425.069
1728 1 -47.7745 2.7783 427.033 -47.7745 2.7783 427.033
1726 1 -49.3843 2.739 428.998 -49.3843 2.739 428.998
2010 1 -50.9938 2.69931 430.964 -50.9938 2.69931 430.964
2007 1 -52.6028 2.65936 432.929 -52.6028 2.65936 432.929
1456 1 -38.4518 2.80908 425.431 -38.4518 2.80908 425.431
1741 1 -40.0633 2.7714 427.394 -40.0633 2.7714 427.394
1738 1 -41.6744 2.73311 429.358 -41.6744 2.73311 429.358
2024 1 -43.2849 2.69424 431.322 -43.2849 2.69424 431.322
2021 1 -44.8947 2.65485 433.286 -44.8947 2.65485 433.286
2035 1 -37.1866 2.65102 433.648 -37.1866 2.65102 433.648
1754 1 -33.0399 2.07121 425.351 -33.0399 2.07121 425.351
1423 1 -56.8698 1.40759 421.854 -56.8698 1.40759 421.854
1420 1 -58.4788 1.36796 423.819 -58.4788 1.36796 423.819
2044 1 -31.7779 1.91611 433.566 -31.7779 1.91611 433.566
1437 1 -49.1589 1.39848 422.21 -49.1589 1.39848 422.21
1434 1 -50.7687 1.35971 424.175 -50.7687 1.35971 424.175
1721 1 -52.3783 1.32045 426.14 -52.3783 1.32045 426.14
1717 1 -53.9877 1.28079 428.106 -53.9877 1.28079 428.106
1714 1 -55.5969 1.24086 430.072 -55.5969 1.24086 430.072
1999 1 -57.2059 1.20082 432.037 -57.2059 1.20082 432.037
1997 1 -58.8149 1.16083 434.003 -58.8149 1.16083 434.003
1164 1 -39.8346 1.42623 420.608 -39.8346 1.42623 420.608
1451 1 -41.4458 1.38907 422.571 -41.4458 1.38907 422.571
1448 1 -43.0568 1.35134 424.534 -43.0568 1.35134 424.534
1734 1 -44.6675 1.31305 426.498 -44.6675 1.31305 426.498
1731 1 -46.2778 1.27421 428.463 -46.2778 1.27421 428.463
2016 1 -47.8876 1.23489 430.427 -47.8876 1.23489 430.427
2012 1 -49.4969 1.19516 432.393 -49.4969 1.19516 432.393
2009 1 -51.1058 1.15518 434.358 -51.1058 1.15518 434.358
1746 1 -36.9552 1.30565 426.862 -36.9552 1.30565 426.862
1744 1 -38.567 1.26802 428.824 -38.567 1.26802 428.824
2030 1 -40.1782 1.22975 430.788 -40.1782 1.22975 430.788
2027 1 -41.7887 1.19087 432.751 -41.7887 1.19087 432.751
2325 1 -35.6911 1.14816 435.078 -35.6911 1.14816 435.078
1749 1 -35.4589 4.22985 428.292 -35.4589 4.22985 428.292
1425 1 -55.3726 4.33004 423.283 -55.3726 4.33004 423.283
1736 1 -43.1708 4.23669 427.928 -43.1708 4.23669 427.928
1142 1 -52.9588 2.17493 420.335 -52.9588 2.17493 420.335
1720 1 -52.4907 4.20368 429.535 -52.4907 4.20368 429.535
2005 1 -54.0998 4.16374 431.5 -54.0998 4.16374 431.5
2002 1 -55.7087 4.1237 433.466 -55.7087 4.1237 433.466
1169 1 -36.7254 4.38638 420.077 -36.7254 4.38638 420.077
1723 1 -50.8812 4.24335 427.569 -50.8812 4.24335 427.569
1440 1 -47.6615 4.32141 423.639 -47.6615 4.32141 423.639
1733 1 -44.7812 4.19783 429.892 -44.7812 4.19783 429.892
2018 1 -46.391 4.15847 431.857 -46.391 4.15847 431.857
2015 1 -48.0003 4.11872 433.822 -48.0003 4.11872 433.822
2036 1 -37.0709 4.19228 430.255 -37.0709 4.19228 430.255
2032 1 -38.6823 4.15403 432.218 -38.6823 4.15403 432.218
2326 1 -35.0013 1.83976 437.49 -35.0013 1.83976 437.49
1752 1 -33.8463 4.26674 426.331 -33.8463 4.26674 426.331
1457 1 -38.3371 4.34982 422.039 -38.3371 4.34982 422.039
2043 1 -32.467 1.22379 431.154 -32.467 1.22379 431.154
2286 1 -58.1215 1.85005 436.415 -58.1215 1.85005 436.415
2319 1 -38.9109 1.06974 439.006 -38.9109 1.06974 439.006
1436 1 -49.2715 4.28262 425.604 -49.2715 4.28262 425.604
1422 1 -56.9818 4.29039 425.248 -56.9818 4.29039 425.248
1173 1 -34.4217 0.686917 420.527 -34.4217 0.686917 420.527
2293 1 -54.322 1.07505 438.29 -54.322 1.07505 438.29
2289 1 -56.6237 0.345626 437.844 -56.6237 0.345626 437.844
2295 1 -52.8243 3.99849 439.719 -52.8243 3.99849 439.719
1465 1 -33.7305 1.37901 422.939 -33.7305 1.37901 422.939
2315 1 -41.2109 0.339033 438.559 -41.2109 0.339033 438.559
2331 1 -32.5841 4.11105 434.546 -32.5841 4.11105 434.546
2297 1 -52.0206 1.80479 438.736 -52.0206 1.80479 438.736
2324 1 -35.8063 4.03392 438.472 -35.8063 4.03392 438.472
2306 1 -46.6153 1.07155 438.647 -46.6153 1.07155 438.647
2285 1 -58.2315 0.305975 439.809 -58.2315 0.305975 439.809
1462 1 -35.343 1.34264 424.9 -35.343 1.34264 424.9
1751 1 -33.9628 2.72674 429.723 -33.9628 2.72674 429.723
2329 1 -33.3901 1.87833 435.527 -33.3901 1.87833 435.527
2042 1 -33.2733 3.41889 432.135 -33.2733 3.41889 432.135
2041 1 -34.0795 1.18635 433.116 -34.0795 1.18635 433.116
2593 1 -47.419 3.26518 439.63 -47.419 3.26518 439.63
2328 1 -33.5063 0.337095 438.921 -33.5063 0.337095 438.921
2301 1 -49.7196 2.53484 439.183 -49.7196 2.53484 439.183
1466 1 -32.9242 3.6107 421.959 -32.9242 3.6107 421.959
2298 1 -51.91 3.34887 435.341 -51.91 3.34887 435.341
2321 1 -38.1064 3.30328 438.024 -38.1064 3.30328 438.024
2313 1 -42.7069 1.8421 437.128 -42.7069 1.8421 437.128
2294 1 -53.5181 3.30878 437.307 -53.5181 3.30878 437.307
2304 1 -48.112 2.575 437.217 -48.112 2.575 437.217
2300 1 -50.4129 1.84491 436.77 -50.4129 1.84491 436.77
2290 1 -55.8197 2.57929 436.861 -55.8197 2.57929 436.861
2318 1 -39.602 0.378734 436.594 -39.602 0.378734 436.594
2327 1 -34.1959 4.07286 436.509 -34.1959 4.07286 436.509
2004 1 -54.2114 2.6193 434.895 -54.2114 2.6193 434.895
2013 1 -48.8046 1.885 434.805 -48.8046 1.885 434.805
2288 1 -57.3173 4.08371 435.432 -57.3173 4.08371 435.432
2037 1 -36.3809 0.456495 432.666 -36.3809 0.456495 432.666
1739 1 -41.5599 4.27499 425.964 -41.5599 4.27499 425.964
1753 1 -33.1564 0.5315 428.743 -33.1564 0.5315 428.743
2307 1 -46.5037 2.61506 435.251 -46.5037 2.61506 435.251
2314 1 -41.9024 4.07571 436.146 -41.9024 4.07571 436.146
2040 1 -34.769 0.494358 430.704 -34.769 0.494358 430.704
2320 1 -38.7971 2.61213 435.612 -38.7971 2.61213 435.612
2292 1 -55.0156 0.38555 435.878 -55.0156 0.38555 435.878
2311 1 -44.203 3.34532 435.699 -44.203 3.34532 435.699
2302 1 -49.6088 4.0787 435.788 -49.6088 4.0787 435.788
2296 1 -52.7141 1.11509 436.324 -52.7141 1.11509 436.324
1463 1 -35.2278 2.88262 421.508 -35.2278 2.88262 421.508
2287 1 -57.4277 2.53948 438.827 -57.4277 2.53948 438.827
2291 1 -55.1258 3.26883 439.273 -55.1258 3.26883 439.273
2317 1 -40.4066 2.57266 437.576 -40.4066 2.57266 437.576
2038 1 -35.5751 2.68924 431.685 -35.5751 2.68924 431.685
2305 1 -47.308 0.38133 436.234 -47.308 0.38133 436.234
2332 1 -31.8951 0.375695 436.958 -31.8951 0.375695 436.958
1709 1 -58.591 4.25044 427.214 -58.591 4.25044 427.214
1468 1 -32.1178 1.41479 420.979 -32.1178 1.41479 420.979
1454 1 -39.9487 4.3127 424.001 -39.9487 4.3127 424.001
1429 1 -53.7634 4.36925 421.317 -53.7634 4.36925 421.317
1133 1 -58.3671 2.91279 420.425 -58.3671 2.91279 420.425
1175 1 -33.6156 2.91852 419.547 -33.6156 2.91852 419.547
2616 1 -34.425 0.988846 443.298 -34.425 0.988846 443.298
2901 1 -36.0318 0.948648 445.264 -36.0318 0.948648 445.264
2907 1 -32.9301 3.91356 444.729 -32.9301 3.91356 444.729
3194 1 -33.843 0.136287 449.109 -33.843 0.136287 449.109
2587 1 -50.5232 0.301045 440.166 -50.5232 0.301045 440.166
2597 1 -45.1187 3.99574 440.077 -45.1187 3.99574 440.077
2584 1 -52.1298 0.26103 442.132 -52.1298 0.26103 442.132
2581 1 -53.7358 0.221314 444.098 -53.7358 0.221314 444.098
2868 1 -55.3414 0.182043 446.063 -55.3414 0.182043 446.063
2865 1 -56.9466 0.143355 448.029 -56.9466 0.143355 448.029
2601 1 -42.8188 0.298992 440.524 -42.8188 0.298992 440.524
2598 1 -44.4255 0.2588 442.49 -44.4255 0.2588 442.49
2885 1 -46.0312 0.218648 444.457 -46.0312 0.218648 444.457
2882 1 -47.6359 0.178721 446.423 -47.6359 0.178721 446.423
2879 1 -49.2399 0.139191 448.389 -49.2399 0.139191 448.389
2612 1 -36.724 0.257851 442.85 -36.724 0.257851 442.85
2898 1 -38.3305 0.217625 444.816 -38.3305 0.217625 444.816
2895 1 -39.9356 0.177321 446.782 -39.9356 0.177321 446.782
3180 1 -41.5393 0.137166 448.749 -41.5393 0.137166 448.749
2576 1 -56.7331 3.22916 441.239 -56.7331 3.22916 441.239
2574 1 -58.34 3.18991 443.204 -58.34 3.18991 443.204
2589 1 -49.0258 3.22501 441.596 -49.0258 3.22501 441.596
2586 1 -50.6318 3.185 443.562 -50.6318 3.185 443.562
2874 1 -52.2372 3.14529 445.528 -52.2372 3.14529 445.528
2871 1 -53.842 3.10605 447.494 -53.842 3.10605 447.494
3155 1 -55.4464 3.0674 449.459 -55.4464 3.0674 449.459
2607 1 -39.7151 3.26353 439.989 -39.7151 3.26353 439.989
2604 1 -41.3226 3.22345 441.954 -41.3226 3.22345 441.954
2600 1 -42.9288 3.18323 443.921 -42.9288 3.18323 443.921
2887 1 -44.5339 3.14309 445.887 -44.5339 3.14309 445.887
2884 1 -46.138 3.10322 447.854 -46.138 3.10322 447.854
3168 1 -47.7411 3.06381 449.821 -47.7411 3.06381 449.821
2900 1 -36.8346 3.1422 446.247 -36.8346 3.1422 446.247
2897 1 -38.439 3.10185 448.214 -38.439 3.10185 448.214
2582 1 -53.6278 1.7648 440.702 -53.6278 1.7648 440.702
2579 1 -55.2345 1.7251 442.668 -55.2345 1.7251 442.668
2866 1 -56.8408 1.68584 444.634 -56.8408 1.68584 444.634
2578 1 -55.9295 1.03522 440.256 -55.9295 1.03522 440.256
2595 1 -45.9222 1.76192 441.06 -45.9222 1.76192 441.06
2592 1 -47.5285 1.72175 443.026 -47.5285 1.72175 443.026
2880 1 -49.1339 1.68177 444.992 -49.1339 1.68177 444.992
2877 1 -50.7385 1.64213 446.958 -50.7385 1.64213 446.958
2873 1 -52.3425 1.60298 448.924 -52.3425 1.60298 448.924
2609 1 -38.2195 1.76067 441.419 -38.2195 1.76067 441.419
2606 1 -39.8265 1.72052 443.385 -39.8265 1.72052 443.385
2892 1 -41.4322 1.68026 445.351 -41.4322 1.68026 445.351
2890 1 -43.0366 1.64011 447.318 -43.0366 1.64011 447.318
3174 1 -44.6399 1.60027 449.285 -44.6399 1.60027 449.285
2618 1 -33.6209 3.22252 442.315 -33.6209 3.22252 442.315
2585 1 -51.3266 2.49474 441.149 -51.3266 2.49474 441.149
2583 1 -52.9329 2.45485 443.115 -52.9329 2.45485 443.115
2870 1 -54.5387 2.41534 445.081 -54.5387 2.41534 445.081
2867 1 -56.1441 2.37634 447.046 -56.1441 2.37634 447.046
2863 1 -57.7492 2.33799 449.011 -57.7492 2.33799 449.011
2599 1 -43.6223 2.49263 441.507 -43.6223 2.49263 441.507
2596 1 -45.2285 2.45243 443.473 -45.2285 2.45243 443.473
2883 1 -46.8337 2.41237 445.44 -46.8337 2.41237 445.44
2881 1 -48.438 2.37262 447.406 -48.438 2.37262 447.406
3164 1 -50.0416 2.33335 449.373 -50.0416 2.33335 449.373
2610 1 -37.5275 2.45149 443.833 -37.5275 2.45149 443.833
2896 1 -39.1332 2.41119 445.799 -39.1332 2.41119 445.799
2893 1 -40.7376 2.37094 447.766 -40.7376 2.37094 447.766
3178 1 -42.3407 2.33093 449.733 -42.3407 2.33093 449.733
2575 1 -57.5366 0.995747 442.221 -57.5366 0.995747 442.221
2591 1 -48.2225 1.03136 440.613 -48.2225 1.03136 440.613
2588 1 -49.8289 0.991248 442.579 -49.8289 0.991248 442.579
2876 1 -51.4346 0.951368 444.545 -51.4346 0.951368 444.545
2872 1 -53.0396 0.911877 446.511 -53.0396 0.911877 446.511
2869 1 -54.6442 0.872916 448.476 -54.6442 0.872916 448.476
2605 1 -40.519 1.02979 440.972 -40.519 1.02979 440.972
2602 1 -42.1258 0.989614 442.938 -42.1258 0.989614 442.938
2889 1 -43.7315 0.949408 444.904 -43.7315 0.949408 444.904
2886 1 -45.3361 0.909378 446.871 -45.3361 0.909378 446.871
3170 1 -46.9397 0.869715 448.837 -46.9397 0.869715 448.837
2899 1 -37.637 0.908285 447.23 -37.637 0.908285 447.23
3184 1 -39.2406 0.868017 449.197 -39.2406 0.868017 449.197
2580 1 -54.4312 3.95863 441.685 -54.4312 3.95863 441.685
2577 1 -56.0377 3.91913 443.651 -56.0377 3.91913 443.651
2864 1 -57.6438 3.88014 445.616 -57.6438 3.88014 445.616
2862 1 -58.4468 1.64714 446.599 -58.4468 1.64714 446.599
2594 1 -46.7254 3.95555 442.043 -46.7254 3.95555 442.043
2590 1 -48.3313 3.91545 444.009 -48.3313 3.91545 444.009
2878 1 -49.9363 3.87562 445.975 -49.9363 3.87562 445.975
2875 1 -51.5406 3.83621 447.941 -51.5406 3.83621 447.941
3159 1 -53.1443 3.79736 449.907 -53.1443 3.79736 449.907
2611 1 -37.4155 3.99436 440.437 -37.4155 3.99436 440.437
2608 1 -39.0232 3.95434 442.402 -39.0232 3.95434 442.402
2894 1 -40.6295 3.91411 444.368 -40.6295 3.91411 444.368
2891 1 -42.2345 3.87388 446.335 -42.2345 3.87388 446.335
2888 1 -43.8384 3.83387 448.302 -43.8384 3.83387 448.302
2904 1 -34.5363 3.87323 446.694 -34.5363 3.87323 446.694
2621 1 -32.0115 3.26196 440.351 -32.0115 3.26196 440.351
2617 1 -34.3113 2.53123 439.903 -34.3113 2.53123 439.903
2614 1 -35.9201 2.49158 441.867 -35.9201 2.49158 441.867
2908 1 -32.2384 0.176861 447.142 -32.2384 0.176861 447.142
2619 1 -32.8164 1.0286 441.333 -32.8164 1.0286 441.333
2906 1 -33.0409 2.37031 448.126 -33.0409 2.37031 448.126
2905 1 -33.7334 1.67971 445.711 -33.7334 1.67971 445.711
2620 1 -32.1262 1.71986 443.746 -32.1262 1.71986 443.746
3190 1 -36.1408 3.83279 448.661 -36.1408 3.83279 448.661
2902 1 -35.3388 1.63928 447.678 -35.3388 1.63928 447.678
2903 1 -35.2286 3.18251 444.281 -35.2286 3.18251 444.281
2615 1 -35.1159 0.297752 440.885 -35.1159 0.297752 440.885
2909 1 -31.4353 2.41081 446.16 -31.4353 2.41081 446.16
14 1 -51.5794 0.38336 399.103 -51.5794 4.81081 399.103
7 1 -56.0546 3.33496 398.329 -56.0546 3.33496 398.329
25 1 -43.8146 0.382115 399.387 -43.8146 4.80957 399.387
38 1 -36.0398 0.310286 399.697 -36.0398 4.73774 399.697
23 1 -45.4147 0.328694 401.338 -45.4147 4.75615 401.338
287 1 -48.6169 0.249126 405.243 -48.6169 4.67658 405.243
878 1 -39.6099 0.0798909 413.822 -39.6099 4.50734 413.822
579 1 -45.7185 0.130231 411.495 -45.7185 4.55768 411.495
585 1 -42.5019 0.20164 407.568 -42.5019 4.62909 407.568
290 1 -47.0169 0.287874 403.285 -47.0169 4.71533 403.285
11 1 -53.1289 0.321184 401.003 -53.1289 4.74864 401.003
595 1 -36.3896 0.150558 409.898 -36.3896 4.57801 409.898
1134 1 -58.2562 4.45723 417.03 -58.2562 4.45723 417.03
283 1 -50.2208 0.213345 407.205 -50.2208 4.6408 407.205
582 1 -44.1101 0.166236 409.531 -44.1101 4.59369 409.531
276 1 -54.7383 0.30318 402.927 -54.7383 4.73063 402.927
569 1 -51.8261 0.178145 409.169 -51.8261 4.6056 409.169
847 1 -56.648 0.0678815 415.065 -56.648 4.49533 415.065
272 1 -56.3314 0.270114 404.883 -56.3314 4.69757 404.883
3 1 -57.8262 3.3372 400.081 -57.8262 3.3372 400.081
35 1 -37.6657 0.29749 401.669 -37.6657 4.72494 401.669
598 1 -34.7789 0.184753 407.938 -34.7789 4.61221 407.938
850 1 -55.0398 0.105072 413.099 -55.0398 4.53252 413.099
304 1 -39.2828 0.270568 403.639 -39.2828 4.69802 403.639
301 1 -40.8933 0.23648 405.604 -40.8933 4.66393 405.604
269 1 -57.9318 0.232393 406.85 -57.9318 4.65985 406.85