ITEM: TIMESTEP
0
ITEM: NUMBER OF ATOMS
4630
ITEM: BOX BOUNDS xy xz yz pp pp pp
-6.0440988501800000e+01 1.0346002034999999e+02 0.0000000000000000e+00
0.0000000000000000e+00 4.4274527100805940e+00 0.0000000000000000e+00
3.8000000000000000e+02 5.0000000000000000e+02 0.0000000000000000e+00
ITEM: ATOMS id type x y z xu yu zu
27 1 -43.6287 2.57409 398.675 -43.6287 2.57409 398.675
36 1 -38.1973 1.82664 398.726 -38.1973 1.82664 398.726
31 1 -41.2642 3.24567 399.111 -41.2642 3.24567 399.111
22 1 -46.7183 4.00045 399.095 -46.7183 4.00045 399.095
20 1 -47.5204 1.78547 399.974 -47.5204 1.78547 399.974
40 1 -35.836 2.5009 399.167 -35.836 2.5009 399.167
34 1 -38.9804 4.02803 399.594 -38.9804 4.02803 399.594
17 1 -49.8112 1.02261 399.501 -49.8112 1.02261 399.501
9 1 -55.1927 1.70062 399.425 -55.1927 1.70062 399.425
43 1 -33.5553 3.2847 399.654 -33.5553 3.2847 399.654
12 1 -52.9448 2.54849 399.936 -52.9448 2.54849 399.936
5 1 -57.5506 1.07682 398.98 -57.5506 1.07682 398.98
29 1 -42.0929 1.02092 399.986 -42.0929 1.02092 399.986
853 1 -54.5099 3.00211 414.434 -54.5099 3.00211 414.434
873 1 -43.6858 1.51944 414.535 -43.6858 1.51944 414.535
865 1 -47.633 0.757354 415.951 -47.633 0.757354 415.951
1174 1 -35.3449 2.19899 417.527 -35.3449 2.19899 417.527
883 1 -38.2736 0.777965 414.588 -38.2736 0.777965 414.588
863 1 -49.0983 2.26119 414.484 -49.0983 2.26119 414.484
315 1 -33.7488 1.71903 403.011 -33.7488 1.71903 403.011
307 1 -38.533 3.1602 405.38 -38.533 3.1602 405.38
1150 1 -49.2874 0.722336 417.874 -49.2874 0.722336 417.874
855 1 -53.0448 1.49856 415.901 -53.0448 1.49856 415.901
310 1 -36.8764 3.19342 403.463 -36.8764 3.19342 403.463
871 1 -44.5132 3.71584 415.496 -44.5132 3.71584 415.496
16 1 -50.6276 3.22633 400.383 -50.6276 3.22633 400.383
309 1 -37.0654 1.65596 406.847 -37.0654 1.65596 406.847
1156 1 -46.168 3.68103 417.419 -46.168 3.68103 417.419
867 1 -46.8057 2.98851 414.99 -46.8057 2.98851 414.99
1159 1 -43.8759 4.4086 417.925 -43.8759 4.4086 417.925
1168 1 -38.4646 3.66778 417.979 -38.4646 3.66778 417.979
1170 1 -37.6369 1.47127 417.018 -37.6369 1.47127 417.018
594 1 -37.8934 3.85317 407.807 -37.8934 3.85317 407.807
37 1 -37.5087 2.49062 401.044 -37.5087 2.49062 401.044
851 1 -55.3369 0.771044 415.396 -55.3369 0.771044 415.396
857 1 -52.2177 3.72979 414.94 -52.2177 3.72979 414.94
592 1 -38.7211 1.62256 408.768 -38.7211 1.62256 408.768
849 1 -56.1639 2.96739 416.357 -56.1639 2.96739 416.357
877 1 -41.3935 2.24691 415.041 -41.3935 2.24691 415.041
1143 1 -53.8718 3.69478 416.863 -53.8718 3.69478 416.863
1140 1 -55.5257 3.65963 418.786 -55.5257 3.65963 418.786
845 1 -58.4561 2.24049 415.852 -58.4561 2.24049 415.852
875 1 -42.221 0.0158851 416.003 -42.221 4.44334 416.003
886 1 -36.6182 0.812117 412.667 -36.6182 0.812117 412.667
891 1 -33.4974 3.76978 412.216 -33.4974 3.76978 412.216
39 1 -36.0527 0.993867 402.499 -36.0527 0.993867 402.499
1177 1 -33.8809 0.695979 418.997 -33.8809 0.695979 418.997
1167 1 -39.2922 1.43678 418.94 -39.2922 1.43678 418.94
8 1 -56.0495 3.96886 400.412 -56.0495 3.96886 400.412
869 1 -45.3406 1.48473 416.457 -45.3406 1.48473 416.457
1136 1 -57.8176 2.93237 418.281 -57.8176 2.93237 418.281
1162 1 -42.4115 2.90523 419.393 -42.4115 2.90523 419.393
15 1 -51.4666 1.01009 401.387 -51.4666 1.01009 401.387
280 1 -53.1189 0.981338 403.306 -53.1189 0.981338 403.306
277 1 -54.7755 0.958826 405.224 -54.7755 0.958826 405.224
273 1 -56.4257 0.924442 407.149 -56.4257 0.924442 407.149
560 1 -58.0793 0.89093 409.073 -58.0793 0.89093 409.073
557 1 -59.7338 0.857343 410.996 -59.7338 0.857343 410.996
26 1 -43.7577 1.00917 401.922 -43.7577 1.00917 401.922
294 1 -45.4159 0.980988 403.858 -45.4159 0.980988 403.858
291 1 -47.0701 0.946034 405.783 -47.0701 0.946034 405.783
576 1 -48.7229 0.910183 407.705 -48.7229 0.910183 407.705
573 1 -50.376 0.875474 409.627 -50.376 0.875474 409.627
570 1 -52.0291 0.840563 411.55 -52.0291 0.840563 411.55
854 1 -53.6828 0.805709 413.473 -53.6828 0.805709 413.473
305 1 -39.36 0.929808 406.338 -39.36 0.929808 406.338
589 1 -41.0147 0.895628 408.26 -41.0147 0.895628 408.26
586 1 -42.6692 0.861245 410.183 -42.6692 0.861245 410.183
872 1 -44.3238 0.826764 412.106 -44.3238 0.826764 412.106
599 1 -34.9623 0.845834 410.746 -34.9623 0.845834 410.746
1132 1 -60.1097 2.20542 417.776 -60.1097 2.20542 417.776
4 1 -57.719 3.97981 402.275 -57.719 3.97981 402.275
268 1 -59.3558 3.936 404.221 -59.3558 3.936 404.221
1152 1 -48.4602 2.95359 416.913 -48.4602 2.95359 416.913
19 1 -48.3593 3.97157 400.943 -48.3593 3.97157 400.943
286 1 -50.0053 3.93747 402.836 -50.0053 3.93747 402.836
282 1 -51.6528 3.90694 404.764 -51.6528 3.90694 404.764
279 1 -53.3069 3.87912 406.688 -53.3069 3.87912 406.688
565 1 -54.9592 3.8464 408.614 -54.9592 3.8464 408.614
563 1 -56.6131 3.81298 410.538 -56.6131 3.81298 410.538
846 1 -58.2676 3.77947 412.462 -58.2676 3.77947 412.462
32 1 -40.6413 3.97188 401.495 -40.6413 3.97188 401.495
300 1 -42.2966 3.93852 403.407 -42.2966 3.93852 403.407
297 1 -43.9495 3.90394 405.328 -43.9495 3.90394 405.328
293 1 -45.6027 3.86959 407.25 -45.6027 3.86959 407.25
578 1 -47.2562 3.83471 409.172 -47.2562 3.83471 409.172
575 1 -48.9099 3.7999 411.095 -48.9099 3.7999 411.095
860 1 -50.5637 3.76488 413.017 -50.5637 3.76488 413.017
591 1 -39.5487 3.81924 409.729 -39.5487 3.81924 409.729
588 1 -41.2036 3.78494 411.651 -41.2036 3.78494 411.651
874 1 -42.8584 3.75046 413.573 -42.8584 3.75046 413.573
10 1 -54.5908 2.47846 401.845 -54.5908 2.47846 401.845
274 1 -56.2482 2.46945 403.753 -56.2482 2.46945 403.753
271 1 -57.8921 2.43064 405.685 -57.8921 2.43064 405.685
558 1 -59.5458 2.39674 407.608 -59.5458 2.39674 407.608
24 1 -45.2511 2.52651 400.515 -45.2511 2.52651 400.515
21 1 -46.8957 2.48575 402.401 -46.8957 2.48575 402.401
288 1 -48.5401 2.44872 404.318 -48.5401 2.44872 404.318
285 1 -50.1894 2.41113 406.239 -50.1894 2.41113 406.239
571 1 -51.8419 2.37757 408.159 -51.8419 2.37757 408.159
568 1 -53.4944 2.34331 410.082 -53.4944 2.34331 410.082
852 1 -55.1479 2.30904 412.005 -55.1479 2.30904 412.005
848 1 -56.8021 2.27496 413.929 -56.8021 2.27496 413.929
306 1 -39.1711 2.46401 402.951 -39.1711 2.46401 402.951
302 1 -40.8273 2.43284 404.869 -40.8273 2.43284 404.869
299 1 -42.4812 2.39917 406.792 -42.4812 2.39917 406.792
583 1 -44.1353 2.36512 408.715 -44.1353 2.36512 408.715
581 1 -45.7896 2.33068 410.639 -45.7896 2.33068 410.639
866 1 -47.444 2.29608 412.561 -47.444 2.29608 412.561
880 1 -39.7384 2.28139 413.119 -39.7384 2.28139 413.119
312 1 -35.4085 1.68844 404.926 -35.4085 1.68844 404.926
2 1 -59.2076 1.09004 400.847 -59.2076 1.09004 400.847
13 1 -52.2845 3.20516 402.326 -52.2845 3.20516 402.326
278 1 -53.9467 3.18454 404.256 -53.9467 3.18454 404.256
275 1 -55.5995 3.15555 406.184 -55.5995 3.15555 406.184
562 1 -57.2518 3.1212 408.111 -57.2518 3.1212 408.111
559 1 -58.9065 3.08794 410.034 -58.9065 3.08794 410.034
1166 1 -40.1198 3.63317 419.901 -40.1198 3.63317 419.901
889 1 -34.3255 1.53931 413.176 -34.3255 1.53931 413.176
28 1 -42.9341 3.23793 400.99 -42.9341 3.23793 400.99
296 1 -44.5913 3.20985 402.9 -44.5913 3.20985 402.9
292 1 -46.2443 3.1775 404.822 -46.2443 3.1775 404.822
289 1 -47.8964 3.1419 406.745 -47.8964 3.1419 406.745
574 1 -49.5494 3.10661 408.666 -49.5494 3.10661 408.666
572 1 -51.2025 3.07183 410.589 -51.2025 3.07183 410.589
856 1 -52.8559 3.03684 412.511 -52.8559 3.03684 412.511
303 1 -40.1877 3.12637 407.3 -40.1877 3.12637 407.3
587 1 -41.842 3.09212 409.222 -41.842 3.09212 409.222
584 1 -43.4965 3.05772 411.144 -43.4965 3.05772 411.144
870 1 -45.1511 3.02321 413.067 -45.1511 3.02321 413.067
6 1 -56.8917 1.7764 401.309 -56.8917 1.7764 401.309
270 1 -58.5318 1.74079 403.252 -58.5318 1.74079 403.252
267 1 -60.1833 1.70484 405.18 -60.1833 1.70484 405.18
890 1 -33.689 2.2329 415.607 -33.689 2.2329 415.607
18 1 -49.1773 1.74141 401.886 -49.1773 1.74141 401.886
284 1 -50.8261 1.70944 403.807 -50.8261 1.70944 403.807
281 1 -52.4803 1.68033 405.729 -52.4803 1.68033 405.729
567 1 -54.1332 1.6496 407.652 -54.1332 1.6496 407.652
564 1 -55.7861 1.61595 409.577 -55.7861 1.61595 409.577
561 1 -57.4404 1.58259 411.5 -57.4404 1.58259 411.5
844 1 -59.0948 1.54872 413.423 -59.0948 1.54872 413.423
33 1 -39.8263 1.77676 400.562 -39.8263 1.77676 400.562
30 1 -41.4759 1.73889 402.441 -41.4759 1.73889 402.441
298 1 -43.1234 1.7067 404.363 -43.1234 1.7067 404.363
295 1 -44.776 1.67305 406.288 -44.776 1.67305 406.288
580 1 -46.4294 1.63837 408.211 -46.4294 1.63837 408.211
577 1 -48.0831 1.60354 410.133 -48.0831 1.60354 410.133
862 1 -49.7368 1.56867 412.056 -49.7368 1.56867 412.056
590 1 -40.3761 1.58841 410.69 -40.3761 1.58841 410.69
876 1 -42.031 1.55399 412.612 -42.031 1.55399 412.612
1163 1 -41.584 0.708899 418.432 -41.584 0.708899 418.432
1153 1 -47.8226 3.64601 419.342 -47.8226 3.64601 419.342
311 1 -36.2364 3.88631 405.887 -36.2364 3.88631 405.887
42 1 -34.3995 1.03329 400.623 -34.3995 1.03329 400.623
1135 1 -58.6444 0.700963 419.243 -58.6444 0.700963 419.243
1171 1 -37.0005 2.16473 419.448 -37.0005 2.16473 419.448
1139 1 -56.3525 1.42822 419.748 -56.3525 1.42822 419.748
601 1 -34.1342 3.07618 409.786 -34.1342 3.07618 409.786
313 1 -34.5763 3.91898 403.965 -34.5763 3.91898 403.965
858 1 -51.3907 1.53359 413.979 -51.3907 1.53359 413.979
868 1 -45.9784 0.792169 414.028 -45.9784 0.792169 414.028
1147 1 -51.5796 4.42231 417.369 -51.5796 4.42231 417.369
843 1 -59.9217 3.7452 414.385 -59.9217 3.7452 414.385
593 1 -38.0833 2.31565 411.198 -38.0833 2.31565 411.198
308 1 -37.7047 0.962521 404.417 -37.7047 0.962521 404.417
861 1 -49.9254 0.0299538 415.446 -49.9254 4.45741 415.446
1158 1 -44.7033 2.17743 418.886 -44.7033 2.17743 418.886
884 1 -37.4459 3.00881 413.628 -37.4459 3.00881 413.628
881 1 -39.1013 2.97451 415.549 -39.1013 2.97451 415.549
885 1 -36.8091 3.70213 416.058 -36.8091 3.70213 416.058
859 1 -50.7525 2.22614 416.407 -50.7525 2.22614 416.407
596 1 -36.4278 2.34949 409.277 -36.4278 2.34949 409.277
879 1 -39.9289 0.743539 416.51 -39.9289 0.743539 416.51
1172 1 -36.1727 4.39562 418.487 -36.1727 4.39562 418.487
1154 1 -46.9953 1.44982 418.38 -46.9953 1.44982 418.38
887 1 -35.9813 1.50547 415.097 -35.9813 1.50547 415.097
597 1 -35.7903 3.04277 411.707 -35.7903 3.04277 411.707
1161 1 -43.0485 2.21227 416.964 -43.0485 2.21227 416.964
1138 1 -56.9908 0.736203 417.319 -56.9908 0.736203 417.319
1149 1 -50.1146 2.91849 418.836 -50.1146 2.91849 418.836
41 1 -35.2174 3.22679 401.555 -35.2174 3.22679 401.555
888 1 -35.1534 3.73617 414.137 -35.1534 3.73617 414.137
1165 1 -40.7565 2.93997 417.471 -40.7565 2.93997 417.471
1141 1 -54.6988 1.4635 417.825 -54.6988 1.4635 417.825
1145 1 -52.4067 2.19099 418.33 -52.4067 2.19099 418.33
600 1 -34.7716 2.38268 407.357 -34.7716 2.38268 407.357
1148 1 -50.9417 0.687146 419.797 -50.9417 0.687146 419.797
882 1 -38.9109 0.0848275 412.159 -38.9109 4.51228 412.159
1157 1 -45.5307 4.37366 419.848 -45.5307 4.37366 419.848
1144 1 -53.2337 4.38709 419.292 -53.2337 4.38709 419.292
602 1 -33.3057 0.878911 408.827 -33.3057 0.878911 408.827
1131 1 -60.2974 0.665265 421.167 -60.2974 0.665265 421.167
1755 1 -33.63 2.74358 428.207 -33.63 2.74358 428.207
1460 1 -38.0198 2.82369 423.799 -38.0198 2.82369 423.799
2308 1 -47.302 3.30178 437.768 -47.302 3.30178 437.768
2316 1 -42.5352 1.87214 435.389 -42.5352 1.87214 435.389
2312 1 -45.0125 4.0312 438.275 -45.0125 4.0312 438.275
1464 1 -35.7287 3.5521 424.308 -35.7287 3.5521 424.308
1461 1 -37.1922 0.62733 422.838 -37.1922 0.62733 422.838
2039 1 -36.3034 3.36701 434.481 -36.3034 3.36701 434.481
2613 1 -38.1454 1.7926 439.796 -38.1454 1.7926 439.796
1467 1 -33.4376 4.2805 424.817 -33.4376 4.2805 424.817
2603 1 -43.5487 2.52874 439.744 -43.5487 2.52874 439.744
1443 1 -47.1852 4.3385 421.771 -47.1852 4.3385 421.771
1748 1 -37.3839 3.51731 426.229 -37.3839 3.51731 426.229
2023 1 -44.8249 1.14283 434.882 -44.8249 1.14283 434.882
2310 1 -45.8379 1.79918 439.237 -45.8379 1.79918 439.237
1151 1 -48.6498 1.4147 420.303 -48.6498 1.4147 420.303
2303 1 -50.4171 0.340474 438.224 -50.4171 0.340474 438.224
2299 1 -52.7072 4.03891 437.718 -52.7072 4.03891 437.718
2033 1 -39.4195 0.405906 434.934 -39.4195 0.405906 434.934
1433 1 -52.5956 0.651735 421.721 -52.5956 0.651735 421.721
1430 1 -54.2491 0.616044 423.644 -54.2491 0.616044 423.644
1426 1 -55.9021 0.580054 425.568 -55.9021 0.580054 425.568
1713 1 -57.5547 0.54379 427.493 -57.5547 0.54379 427.493
1710 1 -59.2068 0.507305 429.418 -59.2068 0.507305 429.418
2330 1 -34.2045 2.55853 438.381 -34.2045 2.55853 438.381
1160 1 -43.2389 0.674043 420.354 -43.2389 0.674043 420.354
1447 1 -44.8936 0.638955 422.277 -44.8936 0.638955 422.277
1444 1 -46.5479 0.603619 424.2 -46.5479 0.603619 424.2
1730 1 -48.2017 0.568009 426.123 -48.2017 0.568009 426.123
1727 1 -49.855 0.532114 428.047 -49.855 0.532114 428.047
1724 1 -51.5077 0.495947 429.971 -51.5077 0.495947 429.971
2008 1 -53.1599 0.459548 431.895 -53.1599 0.459548 431.895
2006 1 -54.8115 0.422979 433.82 -54.8115 0.422979 433.82
1458 1 -38.8473 0.592509 424.76 -38.8473 0.592509 424.76
1743 1 -40.502 0.557361 426.682 -40.502 0.557361 426.682
1740 1 -42.1561 0.521887 428.605 -42.1561 0.521887 428.605
2026 1 -43.8097 0.486096 430.528 -43.8097 0.486096 430.528
2022 1 -45.4625 0.450011 432.451 -45.4625 0.450011 432.451
2019 1 -47.1147 0.413674 434.375 -47.1147 0.413674 434.375
2309 1 -46.4765 1.10635 436.806 -46.4765 1.10635 436.806
1137 1 -57.1792 3.62418 420.71 -57.1792 3.62418 420.71
1421 1 -58.8323 3.58837 422.634 -58.8323 3.58837 422.634
1439 1 -49.4769 3.61079 421.265 -49.4769 3.61079 421.265
1435 1 -51.1308 3.57531 423.188 -51.1308 3.57531 423.188
1432 1 -52.7843 3.53955 425.112 -52.7843 3.53955 425.112
1719 1 -54.4372 3.5035 427.036 -54.4372 3.5035 427.036
1716 1 -56.0897 3.4672 428.96 -56.0897 3.4672 428.96
2001 1 -57.7417 3.43069 430.885 -57.7417 3.43069 430.885
1998 1 -59.3933 3.39405 432.81 -59.3933 3.39405 432.81
2323 1 -37.9564 3.33107 436.403 -37.9564 3.33107 436.403
1453 1 -41.7748 3.59831 421.823 -41.7748 3.59831 421.823
1450 1 -43.4295 3.56319 423.745 -43.4295 3.56319 423.745
1446 1 -45.0837 3.5278 425.668 -45.0837 3.5278 425.668
1732 1 -46.7375 3.49212 427.591 -46.7375 3.49212 427.591
1729 1 -48.3906 3.45615 429.515 -48.3906 3.45615 429.515
2014 1 -50.0432 3.41992 431.439 -50.0432 3.41992 431.439
2011 1 -51.6952 3.38347 433.363 -51.6952 3.38347 433.363
1745 1 -39.0386 3.48217 428.151 -39.0386 3.48217 428.151
1742 1 -40.6927 3.44667 430.073 -40.6927 3.44667 430.073
2028 1 -42.3461 3.41084 431.996 -42.3461 3.41084 431.996
2025 1 -43.9988 3.37471 433.92 -43.9988 3.37471 433.92
1427 1 -55.7141 2.12008 422.177 -55.7141 2.12008 422.177
1424 1 -57.3672 2.08416 424.101 -57.3672 2.08416 424.101
1711 1 -59.0198 2.04795 426.026 -59.0198 2.04795 426.026
2322 1 -38.7826 1.09926 437.365 -38.7826 1.09926 437.365
1750 1 -35.9206 2.01482 427.698 -35.9206 2.01482 427.698
1155 1 -46.358 2.14238 420.809 -46.358 2.14238 420.809
1441 1 -48.0123 2.10711 422.732 -48.0123 2.10711 422.732
1438 1 -49.6662 2.07157 424.655 -49.6662 2.07157 424.655
1725 1 -51.3195 2.03574 426.579 -51.3195 2.03574 426.579
1722 1 -52.9724 1.99964 428.503 -52.9724 1.99964 428.503
1718 1 -54.6247 1.96329 430.428 -54.6247 1.96329 430.428
2003 1 -56.2766 1.92675 432.352 -56.2766 1.92675 432.352
2000 1 -57.928 1.8901 434.277 -57.928 1.8901 434.277
1459 1 -38.6559 2.13017 421.369 -38.6559 2.13017 421.369
1455 1 -40.3109 2.09532 423.291 -40.3109 2.09532 423.291
1452 1 -41.9656 2.06018 425.213 -41.9656 2.06018 425.213
1737 1 -43.6198 2.02474 427.136 -43.6198 2.02474 427.136
1735 1 -45.2735 1.989 429.059 -45.2735 1.989 429.059
2020 1 -46.9265 1.95297 430.983 -46.9265 1.95297 430.983
2017 1 -48.5789 1.91668 432.907 -48.5789 1.91668 432.907
2034 1 -39.2294 1.94417 431.542 -39.2294 1.94417 431.542
2031 1 -40.8827 1.9083 433.465 -40.8827 1.9083 433.465
2029 1 -41.709 4.10398 434.427 -41.709 4.10398 434.427
1146 1 -51.7687 2.8832 420.759 -51.7687 2.8832 420.759
1431 1 -53.4224 2.84765 422.682 -53.4224 2.84765 422.682
1428 1 -55.0757 2.81181 424.606 -55.0757 2.81181 424.606
1715 1 -56.7285 2.77568 426.531 -56.7285 2.77568 426.531
1712 1 -58.3808 2.7393 428.455 -58.3808 2.7393 428.455
1708 1 -60.0327 2.70273 430.38 -60.0327 2.70273 430.38
1747 1 -37.5753 1.97968 429.62 -37.5753 1.97968 429.62
1449 1 -44.0663 2.87026 421.316 -44.0663 2.87026 421.316
1445 1 -45.7208 2.83505 423.238 -45.7208 2.83505 423.238
1442 1 -47.3749 2.79958 425.161 -47.3749 2.79958 425.161
1728 1 -49.0284 2.76382 427.085 -49.0284 2.76382 427.085
1726 1 -50.6814 2.72779 429.009 -50.6814 2.72779 429.009
2010 1 -52.3339 2.6915 430.933 -52.3339 2.6915 430.933
2007 1 -53.9858 2.65501 432.857 -53.9858 2.65501 432.857
1456 1 -39.6747 2.7887 425.721 -39.6747 2.7887 425.721
1741 1 -41.3291 2.75339 427.643 -41.3291 2.75339 427.643
1738 1 -42.983 2.71776 429.566 -42.983 2.71776 429.566
2024 1 -44.6362 2.68181 431.489 -44.6362 2.68181 431.489
2021 1 -46.2887 2.6456 433.413 -46.2887 2.6456 433.413
2035 1 -38.593 2.63762 433.973 -38.593 2.63762 433.973
1754 1 -34.2654 2.04955 425.777 -34.2654 2.04955 425.777
1423 1 -58.0058 1.3926 421.672 -58.0058 1.3926 421.672
1420 1 -59.6586 1.35661 423.596 -59.6586 1.35661 423.596
2044 1 -33.1868 1.90044 434.028 -33.1868 1.90044 434.028
1437 1 -50.3039 1.37936 422.226 -50.3039 1.37936 422.226
1434 1 -51.9576 1.34374 424.15 -51.9576 1.34374 424.15
1721 1 -53.6108 1.30784 426.074 -53.6108 1.30784 426.074
1717 1 -55.2635 1.27165 427.998 -55.2635 1.27165 427.998
1714 1 -56.9157 1.23524 429.923 -56.9157 1.23524 429.923
1999 1 -58.5675 1.19865 431.847 -58.5675 1.19865 431.847
1997 1 -60.219 1.16198 433.772 -60.219 1.16198 433.772
1164 1 -40.9474 1.40205 420.862 -40.9474 1.40205 420.862
1451 1 -42.6022 1.36706 422.784 -42.6022 1.36706 422.784
1448 1 -44.2567 1.3318 424.706 -44.2567 1.3318 424.706
1734 1 -45.9107 1.29627 426.629 -45.9107 1.29627 426.629
1731 1 -47.5641 1.26044 428.553 -47.5641 1.26044 428.553
2016 1 -49.217 1.22434 430.477 -49.217 1.22434 430.477
2012 1 -50.8693 1.188 432.401 -50.8693 1.188 432.401
2009 1 -52.521 1.15146 434.325 -52.521 1.15146 434.325
1746 1 -38.2113 1.28606 427.19 -38.2113 1.28606 427.19
1744 1 -39.8657 1.25074 429.112 -39.8657 1.25074 429.112
2030 1 -41.5195 1.21507 431.035 -41.5195 1.21507 431.035
2027 1 -43.1725 1.17909 432.958 -43.1725 1.17909 432.958
2325 1 -37.13 1.13536 435.442 -37.13 1.13536 435.442
1749 1 -36.7481 4.21102 428.659 -36.7481 4.21102 428.659
1425 1 -56.5407 4.31589 423.139 -56.5407 4.31589 423.139
1736 1 -44.4467 4.22063 428.098 -44.4467 4.22063 428.098
1142 1 -54.0606 2.15567 420.253 -54.0606 2.15567 420.253
1720 1 -53.7986 4.19521 429.465 -53.7986 4.19521 429.465
2005 1 -55.4507 4.15876 431.39 -55.4507 4.15876 431.39
2002 1 -57.1023 4.12216 433.315 -57.1023 4.12216 433.315
1169 1 -37.8282 4.36121 420.409 -37.8282 4.36121 420.409
1723 1 -52.146 4.23145 427.541 -52.146 4.23145 427.541
1440 1 -48.8393 4.3031 423.694 -48.8393 4.3031 423.694
1733 1 -46.1001 4.18475 430.021 -46.1001 4.18475 430.021
2018 1 -47.7528 4.14858 431.945 -47.7528 4.14858 431.945
2015 1 -49.4048 4.11218 433.869 -49.4048 4.11218 433.869
2036 1 -38.4025 4.1757 430.581 -38.4025 4.1757 430.581
2032 1 -40.0561 4.14 432.504 -40.0561 4.14 432.504
2326 1 -36.4935 1.82888 437.873 -36.4935 1.82888 437.873
1752 1 -35.0931 4.24596 426.738 -35.0931 4.24596 426.738
1457 1 -39.4835 4.32651 422.33 -39.4835 4.32651 422.33
2043 1 -33.8222 1.20645 431.598 -33.8222 1.20645 431.598
2286 1 -59.5791 1.85343 436.202 -59.5791 1.85343 436.202
2319 1 -40.4342 1.06291 439.289 -40.4342 1.06291 439.289
1436 1 -50.4929 4.26742 425.617 -50.4929 4.26742 425.617
1422 1 -58.1935 4.27982 425.063 -58.1935 4.27982 425.063
1173 1 -35.5367 0.661823 420.917 -35.5367 0.661823 420.917
2293 1 -55.8228 1.0781 438.175 -55.8228 1.0781 438.175
2289 1 -58.1135 0.349638 437.67 -58.1135 0.349638 437.67
2295 1 -54.3575 4.0022 439.643 -54.3575 4.0022 439.643
1465 1 -34.9009 1.35562 423.347 -34.9009 1.35562 423.347
2315 1 -42.7233 0.333286 438.782 -42.7233 0.333286 438.782
2331 1 -34.0138 4.09643 434.989 -34.0138 4.09643 434.989
2297 1 -53.5324 1.80683 438.681 -53.5324 1.80683 438.681
2324 1 -37.3195 4.02449 438.835 -37.3195 4.02449 438.835
2306 1 -48.1274 1.06973 438.73 -48.1274 1.06973 438.73
2285 1 -59.764 0.313034 439.595 -59.764 0.313034 439.595
1462 1 -36.5563 1.32102 425.268 -36.5563 1.32102 425.268
1751 1 -35.2851 2.70867 430.128 -35.2851 2.70867 430.128
2329 1 -34.8406 1.86485 435.95 -34.8406 1.86485 435.95
2042 1 -34.6495 3.40256 432.559 -34.6495 3.40256 432.559
2041 1 -35.4765 1.17111 433.52 -35.4765 1.17111 433.52
2593 1 -48.9526 3.26512 439.693 -48.9526 3.26512 439.693
2328 1 -35.0307 0.326743 439.342 -35.0307 0.326743 439.342
2301 1 -51.2423 2.53584 439.186 -51.2423 2.53584 439.186
1466 1 -34.073 3.58651 422.387 -34.073 3.58651 422.387
2298 1 -53.3466 3.34687 435.288 -53.3466 3.34687 435.288
2321 1 -39.6085 3.29484 438.327 -39.6085 3.29484 438.327
2313 1 -44.1869 1.83574 437.313 -44.1869 1.83574 437.313
2294 1 -54.9975 3.31018 437.213 -54.9975 3.31018 437.213
2304 1 -49.5917 2.57254 437.262 -49.5917 2.57254 437.262
2300 1 -51.8818 1.84354 436.756 -51.8818 1.84354 436.756
2290 1 -57.2882 2.5817 436.707 -57.2882 2.5817 436.707
2318 1 -41.0718 0.369708 436.858 -41.0718 0.369708 436.858
2327 1 -35.6672 4.06064 436.911 -35.6672 4.06064 436.911
2004 1 -55.6372 2.61838 434.782 -55.6372 2.61838 434.782
2013 1 -50.2306 1.88018 434.831 -50.2306 1.88018 434.831
2288 1 -58.7536 4.08549 435.24 -58.7536 4.08549 435.24
2037 1 -37.7663 0.441802 433.011 -37.7663 0.441802 433.011
1739 1 -42.7928 4.25622 426.175 -42.7928 4.25622 426.175
1753 1 -34.4576 0.512454 429.168 -34.4576 0.512454 429.168
2307 1 -47.9406 2.60915 435.337 -47.9406 2.60915 435.337
2314 1 -43.3612 4.06769 436.351 -43.3612 4.06769 436.351
2040 1 -36.1123 0.477333 431.089 -36.1123 0.477333 431.089
2320 1 -40.2457 2.60157 435.896 -40.2457 2.60157 435.896
2292 1 -56.4627 0.386315 435.745 -56.4627 0.386315 435.745
2311 1 -45.6507 3.33834 435.844 -45.6507 3.33834 435.844
2302 1 -51.0563 4.0756 435.793 -51.0563 4.0756 435.793
2296 1 -54.1721 1.1148 436.25 -54.1721 1.1148 436.25
1463 1 -36.3645 2.85834 421.878 -36.3645 2.85834 421.878
2287 1 -58.9388 2.54505 438.632 -58.9388 2.54505 438.632
2291 1 -56.648 3.27349 439.138 -56.648 3.27349 439.138
2317 1 -41.8976 2.56525 437.82 -41.8976 2.56525 437.82
2038 1 -36.9394 2.67334 432.05 -36.9394 2.67334 432.05
2305 1 -48.7662 0.377139 436.299 -48.7662 0.377139 436.299
2332 1 -33.3781 0.362781 437.42 -33.3781 0.362781 437.42
1709 1 -59.8459 4.24347 426.988 -59.8459 4.24347 426.988
1468 1 -33.2451 1.38986 421.427 -33.2451 1.38986 421.427
1454 1 -41.1383 4.29151 424.252 -41.1383 4.29151 424.252
1429 1 -54.8874 4.35164 421.215 -54.8874 4.35164 421.215
1133 1 -59.471 2.8969 420.205 -59.471 2.8969 420.205
1175 1 -34.7088 2.89267 419.957 -34.7088 2.89267 419.957
2616 1 -36.0447 0.983713 443.698 -36.0447 0.983713 443.698
2901 1 -37.6944 0.94715 445.622 -37.6944 0.94715 445.622
2907 1 -34.5817 3.90898 445.168 -34.5817 3.90898 445.168
3194 1 -35.5916 0.138143 449.525 -35.5916 0.138143 449.525
2587 1 -52.0674 0.303752 440.149 -52.0674 0.303752 440.149
2597 1 -46.6631 3.99459 440.199 -46.6631 3.99459 440.199
2584 1 -53.7171 0.26705 442.074 -53.7171 0.26705 442.074
2581 1 -55.3664 0.230451 443.999 -55.3664 0.230451 443.999
2868 1 -57.0153 0.194048 445.924 -57.0153 0.194048 445.924
2865 1 -58.664 0.157938 447.849 -58.664 0.157938 447.849
2601 1 -44.3739 0.296727 440.706 -44.3739 0.296727 440.706
2598 1 -46.0239 0.260112 442.631 -46.0239 0.260112 442.631
2885 1 -47.6731 0.223521 444.556 -47.6731 0.223521 444.556
2882 1 -49.3216 0.187025 446.481 -49.3216 0.187025 446.481
2879 1 -50.9696 0.150702 448.406 -50.9696 0.150702 448.406
2612 1 -38.3329 0.253904 443.19 -38.3329 0.253904 443.19
2898 1 -39.9826 0.217349 445.115 -39.9826 0.217349 445.115
2895 1 -41.6314 0.180841 447.04 -41.6314 0.180841 447.04
3180 1 -43.2793 0.144451 448.965 -43.2793 0.144451 448.965
2576 1 -58.2981 3.23689 441.063 -58.2981 3.23689 441.063
2574 1 -59.9479 3.20047 442.988 -59.9479 3.20047 442.988
2589 1 -50.6025 3.22841 441.617 -50.6025 3.22841 441.617
2586 1 -52.2518 3.19174 443.542 -52.2518 3.19174 443.542
2874 1 -53.9007 3.15518 445.467 -53.9007 3.15518 445.467
2871 1 -55.5491 3.11882 447.392 -55.5491 3.11882 447.392
3155 1 -57.1972 3.08275 449.317 -57.1972 3.08275 449.317
2607 1 -41.2597 3.25839 440.251 -41.2597 3.25839 440.251
2604 1 -42.9101 3.22184 442.175 -42.9101 3.22184 442.175
2600 1 -44.5597 3.18526 444.1 -44.5597 3.18526 444.1
2887 1 -46.2085 3.14874 446.025 -46.2085 3.14874 446.025
2884 1 -47.8566 3.11235 447.95 -47.8566 3.11235 447.95
3168 1 -49.5042 3.07619 449.876 -49.5042 3.07619 449.876
2900 1 -38.5189 3.14261 446.584 -38.5189 3.14261 446.584
2897 1 -40.1672 3.10615 448.51 -40.1672 3.10615 448.51
2582 1 -55.1825 1.77013 440.605 -55.1825 1.77013 440.605
2579 1 -56.8322 1.73352 442.531 -56.8322 1.73352 442.531
2866 1 -58.4816 1.69711 444.456 -58.4816 1.69711 444.456
2578 1 -57.4731 1.04145 440.1 -57.4731 1.04145 440.1
2595 1 -47.4882 1.76253 441.162 -47.4882 1.76253 441.162
2592 1 -49.1377 1.72587 443.086 -49.1377 1.72587 443.086
2880 1 -50.7867 1.68927 445.011 -50.7867 1.68927 445.011
2877 1 -52.4351 1.6528 446.936 -52.4351 1.6528 446.936
2873 1 -54.083 1.61655 448.861 -54.083 1.61655 448.861
2609 1 -39.7963 1.75612 441.72 -39.7963 1.75612 441.72
2606 1 -41.4463 1.71957 443.645 -41.4463 1.71957 443.645
2892 1 -43.0955 1.68302 445.57 -43.0955 1.68302 445.57
2890 1 -44.7439 1.64657 447.495 -44.7439 1.64657 447.495
3174 1 -46.3916 1.61027 449.42 -46.3916 1.61027 449.42
2618 1 -35.2194 3.2157 442.736 -35.2194 3.2157 442.736
2585 1 -52.8923 2.49912 441.111 -52.8923 2.49912 441.111
2583 1 -54.5418 2.46246 443.036 -54.5418 2.46246 443.036
2870 1 -56.1909 2.42595 444.961 -56.1909 2.42595 444.961
2867 1 -57.8397 2.38968 446.886 -57.8397 2.38968 446.886
2863 1 -59.4882 2.35375 448.811 -59.4882 2.35375 448.811
2599 1 -45.199 2.49215 441.668 -45.199 2.49215 441.668
2596 1 -46.8486 2.45554 443.593 -46.8486 2.45554 443.593
2883 1 -48.4974 2.41898 445.518 -48.4974 2.41898 445.518
2881 1 -50.1457 2.38256 447.443 -50.1457 2.38256 447.443
3164 1 -51.7934 2.34636 449.368 -51.7934 2.34636 449.368
2610 1 -39.1579 2.44935 444.152 -39.1579 2.44935 444.152
2896 1 -40.8071 2.41281 446.077 -40.8071 2.41281 446.077
2893 1 -42.4554 2.37635 448.002 -42.4554 2.37635 448.002
3178 1 -44.103 2.34004 449.927 -44.103 2.34004 449.927
2575 1 -59.123 1.00492 442.025 -59.123 1.00492 442.025
2591 1 -49.7776 1.03304 440.655 -49.7776 1.03304 440.655
2588 1 -51.4272 0.996339 442.58 -51.4272 0.996339 442.58
2876 1 -53.0763 0.959713 444.505 -53.0763 0.959713 444.505
2872 1 -54.7249 0.92324 446.43 -54.7249 0.92324 446.43
2869 1 -56.3732 0.887012 448.355 -56.3732 0.887012 448.355
2605 1 -42.085 1.0264 441.213 -42.085 1.0264 441.213
2602 1 -43.735 0.989818 443.138 -43.735 0.989818 443.138
2889 1 -45.3842 0.95326 445.063 -45.3842 0.95326 445.063
2886 1 -47.0326 0.916798 446.988 -47.0326 0.916798 446.988
3170 1 -48.6805 0.88051 448.913 -48.6805 0.88051 448.913
2899 1 -39.3432 0.910636 447.547 -39.3432 0.910636 447.547
3184 1 -40.9911 0.874255 449.472 -40.9911 0.874255 449.472
2580 1 -56.0074 3.96553 441.568 -56.0074 3.96553 441.568
2577 1 -57.657 3.92901 443.493 -57.657 3.92901 443.493
2864 1 -59.3062 3.89273 445.418 -59.3062 3.89273 445.418
2862 1 -60.1308 1.66098 446.381 -60.1308 1.66098 446.381
2594 1 -48.313 3.95792 442.124 -48.313 3.95792 442.124
2590 1 -49.9623 3.92128 444.049 -49.9623 3.92128 444.049
2878 1 -51.611 3.88474 445.974 -51.611 3.88474 445.974
2875 1 -53.2591 3.84837 447.899 -53.2591 3.84837 447.899
3159 1 -54.9068 3.81226 449.824 -54.9068 3.81226 449.824
2611 1 -38.9709 3.9881 440.758 -38.9709 3.9881 440.758
2608 1 -40.6214 3.95158 442.683 -40.6214 3.95158 442.683
2894 1 -42.271 3.91501 444.607 -42.271 3.91501 444.607
2891 1 -43.9198 3.8785 446.532 -43.9198 3.8785 446.532
2888 1 -45.5678 3.84212 448.458 -45.5678 3.84212 448.458
2904 1 -36.231 3.87239 447.092 -36.231 3.87239 447.092
2621 1 -33.5681 3.25211 440.812 -33.5681 3.25211 440.812
2617 1 -35.8567 2.52233 440.304 -35.8567 2.52233 440.304
2614 1 -37.5078 2.4859 442.228 -37.5078 2.4859 442.228
2908 1 -33.9433 0.174711 447.6 -33.9433 0.174711 447.6
2619 1 -34.3939 1.02021 441.774 -34.3939 1.02021 441.774
2906 1 -34.7676 2.37013 448.562 -34.7676 2.37013 448.562
2905 1 -35.4065 1.67695 446.13 -35.4065 1.67695 446.13
2620 1 -33.7566 1.71355 444.205 -33.7566 1.71355 444.205
3190 1 -37.8793 3.8359 449.017 -37.8793 3.8359 449.017
2902 1 -37.0553 1.6404 448.054 -37.0553 1.6404 448.054
2903 1 -36.8697 3.17916 444.66 -36.8697 3.17916 444.66
2615 1 -36.6823 0.290409 441.266 -36.6823 0.290409 441.266
2909 1 -33.1187 2.40677 446.638 -33.1187 2.40677 446.638
14 1 -52.1749 0.347312 399.064 -52.1749 4.77476 399.064
7 1 -56.6298 3.29852 398.179 -56.6298 3.29852 398.179
25 1 -44.4215 0.347279 399.541 -44.4215 4.77473 399.541
38 1 -36.6605 0.276487 400.043 -36.6605 4.70394 400.043
23 1 -46.0683 0.293623 401.453 -46.0683 4.72108 401.453
287 1 -49.3646 0.214875 405.277 -49.3646 4.64233 405.277
878 1 -40.566 0.0504456 414.08 -40.566 4.4779 414.08
579 1 -46.6168 0.0996941 411.6 -46.6168 4.52715 411.6
585 1 -43.3081 0.168578 407.754 -43.3081 4.59603 407.754
290 1 -47.7173 0.252975 403.359 -47.7173 4.68043 403.359
11 1 -53.7713 0.285227 400.925 -53.7713 4.71268 400.925
595 1 -37.2556 0.118926 410.237 -37.2556 4.54638 410.237
1134 1 -59.283 0.00930309 416.814 -59.283 4.43676 416.814
283 1 -51.0157 0.180264 407.198 -51.0157 4.60772 407.198
582 1 -44.9624 0.13423 409.677 -44.9624 4.56168 409.677
276 1 -55.4287 0.267788 402.807 -55.4287 4.69524 402.807
569 1 -52.668 0.146723 409.12 -52.668 4.57418 409.12
847 1 -57.6292 0.0440604 414.89 -57.6292 4.47151 414.89
272 1 -57.0703 0.235989 404.722 -57.0703 4.66344 404.722
3 1 -58.4446 3.30067 399.886 -58.4446 3.30067 399.886
35 1 -38.333 0.263341 401.975 -38.333 4.69079 401.975
598 1 -35.5997 0.152494 408.317 -35.5997 4.57995 408.317
850 1 -55.975 0.0782852 412.967 -55.975 4.50574 412.967
304 1 -39.9965 0.23653 403.906 -39.9965 4.66398 403.906