# LAMMPS data file written by OVITO Pro 3.8.2

4630 atoms
1 atom types

-64.3409885018 107.36002035 xlo xhi
0 4.427452710080594 ylo yhi
380.0 500.0 zlo zhi

Masses

1 63.546  # Cu

Atoms  # atomic

11013 1 -46.3634921741 1.9104574991 399.8175914861 0 0 0
40618 1 -40.6981302905 1.1702361604 399.877228881 0 0 0
11052 1 -43.9604389432 2.6099833755 400.2558885372 0 0 0
10973 1 -49.5975151003 3.3633547406 400.2196215903 0 0 0
11082 1 -50.495860502 1.1402646381 401.0565182698 0 0 0
40600 1 -38.2967862596 1.8707997082 400.3174083021 0 0 0
10727 1 -41.5730276709 3.3684491268 400.7030322177 0 0 0
10934 1 -52.8873448739 0.3913283125 400.6150102471 0 0 0
11072 1 -58.5236588609 1.086174031 400.5216439535 0 0 0
40608 1 -35.909892917 2.6300965087 400.7652796128 0 0 0
11003 1 -56.1604536413 1.8894103693 400.9986893639 0 0 0
11035 1 -60.9193807352 0.3979446841 400.0593622507 0 0 0
10944 1 -44.8310399342 0.381505367 401.1035954067 0 0 0
11873 1 -57.9667812263 2.611712608 415.0782696889 0 0 0
12138 1 -46.6346700549 1.1366595323 415.2149489912 0 0 0
11992 1 -50.7814202192 0.3992518639 416.576934735 0 0 0
41682 1 -37.9272478426 1.8729298582 418.1399360806 0 0 0
11787 1 -40.9678344651 0.3977958461 415.2809568847 0 0 0
12092 1 -52.3022367971 1.8753032186 415.1462085522 0 0 0
40619 1 -36.1383018758 1.1376581773 404.035277183 0 0 0
10279 1 -41.1537312847 2.6133200546 406.336206457 0 0 0
11993 1 -52.530967182 0.3986203391 418.4391508664 0 0 0
12130 1 -56.4464735487 1.1359940294 416.5091644882 0 0 0
40610 1 -39.4041563352 2.6159956529 404.478379436 0 0 0
12031 1 -47.5101465627 3.3505207343 416.1456626547 0 0 0
11043 1 -53.7590593979 2.5897747577 401.4630613234 0 0 0
40621 1 -39.6328571757 1.1373137552 407.7634995702 0 0 0
12032 1 -49.2606063346 3.3505432435 418.0073148881 0 0 0
12099 1 -49.9062585297 2.6130327126 415.6461631019 0 0 0
12179 1 -46.8647283972 4.0880896364 418.5065079794 0 0 0
12042 1 -41.197881089 3.3491443556 418.5729511656 0 0 0
41699 1 -40.3226959412 1.1353698798 417.6417334188 0 0 0
40597 1 -40.5077742053 3.3506989187 408.6965352649 0 0 0
40601 1 -40.0493073999 1.8795062243 402.1436187677 0 0 0
11985 1 -58.8408983931 0.3972074943 416.0102085681 0 0 0
12023 1 -55.5722070313 3.3503959577 415.577569611 0 0 0
10598 1 -41.382544403 1.1368206886 409.6279634145 0 0 0
12093 1 -59.7150765455 2.6102313837 416.9422957693 0 0 0
12070 1 -44.2387471444 1.8740758084 415.7137508936 0 0 0
12024 1 -57.3206905795 3.3490423763 417.4410145444 0 0 0
12025 1 -59.0691797855 3.3477785016 419.304801179 0 0 0
12056 1 -62.109336624 1.8714003725 416.4438885364 0 0 0
12178 1 -45.1141411681 4.0879178036 416.6446830624 0 0 0
40589 1 -39.2176123399 0.3979273784 413.4181657867 0 0 0
40598 1 -35.9477448878 3.3495994337 412.9841537798 0 0 0
40585 1 -38.5339027962 0.3949838786 403.5311706386 0 0 0
41665 1 -36.4069191037 0.3967709779 419.5694889372 0 0 0
12150 1 -42.0730700269 1.1354851774 419.504111398 0 0 0
10964 1 -59.4030061142 3.3395888165 401.4727316112 0 0 0
12139 1 -48.3854750556 1.1368705068 417.0764349949 0 0 0
12094 1 -61.4636132687 2.609048159 418.8063830728 0 0 0
12112 1 -45.3440173533 2.6118383578 419.9364760566 0 0 0
10935 1 -54.6364438531 0.3977618417 402.443967057 0 0 0
10936 1 -56.391419382 0.393319726 404.278213869 0 0 0
10937 1 -58.1547827435 0.4047568232 406.1301324356 0 0 0
10938 1 -59.9069654899 0.4034434856 407.9867935758 0 0 0
10939 1 -61.6531035728 0.3988067498 409.8521125963 0 0 0
10940 1 -63.4005753186 0.3962667021 411.7179797824 0 0 0
10945 1 -46.5821624052 0.4032876324 402.9730272299 0 0 0
10946 1 -48.3364875111 0.40402013 404.843671879 0 0 0
10947 1 -50.0878541695 0.3983020003 406.7025593182 0 0 0
10948 1 -51.8390411004 0.3971618325 408.5637142493 0 0 0
10949 1 -53.5923301056 0.3990647297 410.4231462993 0 0 0
10950 1 -55.3437111925 0.3998386961 412.2835050047 0 0 0
10951 1 -57.092639805 0.3987574653 414.1462883565 0 0 0
10952 1 -42.0271658842 0.3997428245 407.2675238123 0 0 0
10953 1 -43.7777616806 0.3993438075 409.1307105291 0 0 0
10954 1 -45.5284535398 0.3989355704 410.9928871266 0 0 0
10955 1 -47.2795098304 0.3988993357 412.8545722407 0 0 0
40588 1 -37.467734889 0.3983434929 411.5549077022 0 0 0
12057 1 -63.8580378081 1.8704166534 418.3082354054 0 0 0
10965 1 -61.206534326 3.3705060165 403.2516823409 0 0 0
10966 1 -62.9463997124 3.3521760696 405.1142670262 0 0 0
12100 1 -51.6563074673 2.6127306355 417.5079106611 0 0 0
10974 1 -51.3815428557 3.3346219686 401.9738606902 0 0 0
10975 1 -53.12193157 3.3386072638 403.8287745939 0 0 0
10976 1 -54.8733637386 3.3455648463 405.6998125248 0 0 0
10977 1 -56.6324690929 3.3518953721 407.5590992799 0 0 0
10978 1 -58.3852727944 3.3532560237 409.4188184137 0 0 0
10979 1 -60.1330347123 3.3506156996 411.2834195288 0 0 0
10980 1 -61.8808122915 3.3483377096 413.1486156244 0 0 0
10982 1 -43.3139952145 3.348350819 402.5639175505 0 0 0
10983 1 -45.0668397048 3.3537737326 404.4174696042 0 0 0
10984 1 -46.8188918191 3.3525242872 406.2727997523 0 0 0
10985 1 -48.5686531647 3.3511646789 408.1338681054 0 0 0
10986 1 -50.3196607659 3.350319933 409.9951793766 0 0 0
10987 1 -52.0719929658 3.3510368734 411.8548685395 0 0 0
10988 1 -53.8230182311 3.351304081 413.7152519771 0 0 0
10989 1 -42.2578716543 3.3502913959 410.559418084 0 0 0
10990 1 -44.0083073394 3.3501513511 412.4220625797 0 0 0
10991 1 -45.7591548133 3.3502414993 414.2841364467 0 0 0
11004 1 -57.9028851209 1.8562642808 402.8583316053 0 0 0
11005 1 -59.6803091481 1.8850348829 404.6920138127 0 0 0
11006 1 -61.4280124637 1.8795425914 406.5517675441 0 0 0
11007 1 -63.1723386974 1.8735213545 408.4205544642 0 0 0
11014 1 -48.120244875 1.8683684943 401.5688765146 0 0 0
11015 1 -49.8621907382 1.8764074436 403.4076563069 0 0 0
11016 1 -51.6046732791 1.8723637667 405.2747465774 0 0 0
11017 1 -53.3569918646 1.8718364327 407.1359694958 0 0 0
11018 1 -55.1126148589 1.8750649544 408.9925183513 0 0 0
11019 1 -56.8645143388 1.8762889688 410.851919354 0 0 0
11020 1 -58.6129756248 1.8746820611 412.7150814992 0 0 0
11021 1 -60.3609641755 1.8728085293 414.5794582586 0 0 0
11022 1 -41.8008893405 1.8752766119 403.9734867477 0 0 0
11023 1 -43.5479038087 1.8751573912 405.8358810216 0 0 0
11024 1 -45.297911787 1.8757792439 407.7001688907 0 0 0
11025 1 -47.048454906 1.8751886044 409.5633356331 0 0 0
11026 1 -48.7997457773 1.8747777162 411.4247806273 0 0 0
11027 1 -50.551468911 1.875202776 413.2852722151 0 0 0
11029 1 -42.4880764941 1.873978283 413.8515431769 0 0 0
40620 1 -37.8846066916 1.1375696096 405.8976661529 0 0 0
11036 1 -62.7402376149 0.4171170392 401.8176533264 0 0 0
11044 1 -55.50720852 2.6068209129 403.3345881959 0 0 0
11045 1 -57.2707924292 2.6122805452 405.2006409168 0 0 0
11046 1 -59.0320049679 2.6188769268 407.054273005 0 0 0
11047 1 -60.7796628542 2.6146333018 408.9186264363 0 0 0
11048 1 -62.5265316735 2.6110351635 410.7850151336 0 0 0
12043 1 -42.9482381723 3.349275527 420.43524261 0 0 0
40624 1 -36.8225291453 1.1356650882 413.9159256027 0 0 0
11053 1 -45.7104664409 2.617285563 402.0840514257 0 0 0
11054 1 -47.4654573646 2.6154307355 403.9117233009 0 0 0
11055 1 -49.2133941363 2.6148193378 405.7714268165 0 0 0
11056 1 -50.9625625185 2.6115789346 407.6349710889 0 0 0
11057 1 -52.7155610696 2.6120531799 409.4947159063 0 0 0
11058 1 -54.4684383377 2.6135470633 411.3534398001 0 0 0
11059 1 -56.2183876564 2.6132014832 413.2148310838 0 0 0
11061 1 -42.9030273508 2.6128138176 408.1985449031 0 0 0
11062 1 -44.6532013413 2.6127548119 410.0613912822 0 0 0
11063 1 -46.4039122462 2.6125716275 411.9237504676 0 0 0
11064 1 -48.1551961712 2.612761542 413.7851077613 0 0 0
11073 1 -60.3136132989 1.1484941609 402.3397269995 0 0 0
11074 1 -62.0774731507 1.1469708973 404.1762429789 0 0 0
11075 1 -63.8167451142 1.1357605859 406.0533563151 0 0 0
41681 1 -36.1772652179 1.8730873697 416.2769474498 0 0 0
11083 1 -52.2414036701 1.1264201876 402.9216802659 0 0 0
11084 1 -53.9949580621 1.1321753731 404.779323027 0 0 0
11085 1 -55.7537876912 1.1353374777 406.6335900645 0 0 0
11086 1 -57.5102596013 1.1400412503 408.4894487413 0 0 0
11087 1 -59.2594725245 1.1383529328 410.3512984736 0 0 0
11088 1 -61.0069006636 1.1356357461 412.2161533941 0 0 0
11089 1 -62.7549880645 1.1338145223 414.0811145509 0 0 0
11090 1 -42.4603525643 1.1312506234 401.6243784786 0 0 0
11091 1 -44.1959909182 1.1325892441 403.470507691 0 0 0
11092 1 -45.9429914762 1.1391716359 405.3384014062 0 0 0
11093 1 -47.6932218984 1.1385024981 407.2032127902 0 0 0
11094 1 -49.4439525316 1.136566233 409.0644231205 0 0 0
11095 1 -51.1959156112 1.1367191917 410.9246659478 0 0 0
11096 1 -52.9477841492 1.1375501254 412.7845926911 0 0 0
11098 1 -43.1329554835 1.1365440827 411.4909612766 0 0 0
11099 1 -44.8836638063 1.1364432588 413.3532517103 0 0 0
12004 1 -44.4688483367 0.3980656295 419.0054285002 0 0 0
12033 1 -51.0102449903 3.3500455129 419.8696168116 0 0 0
40596 1 -38.7577847442 3.3520960504 406.833703498 0 0 0
40584 1 -36.7977741013 0.3927429702 401.6862812106 0 0 0
11987 1 -62.3379728295 0.3948377632 419.7383949451 0 0 0
41683 1 -39.6774318476 1.8729485007 420.0025854868 0 0 0
12132 1 -59.9434910144 1.1334982826 420.2367033546 0 0 0
40613 1 -36.593107752 2.6123071304 410.6228784879 0 0 0
40595 1 -37.0066712182 3.3538248491 404.9687111118 0 0 0
12627 1 -54.69777135 1.1372144796 414.6461011025 0 0 0
12625 1 -49.0308124284 0.399227742 414.7156402126 0 0 0
12169 1 -54.9260197992 4.0877028725 417.9400015428 0 0 0
12626 1 -63.6292365948 3.3469157241 415.0135079302 0 0 0
10311 1 -40.7377227606 1.874107015 411.9887909923 0 0 0
40586 1 -40.2784368842 0.4005320721 405.4003852899 0 0 0
12168 1 -53.1770679239 4.0887497934 416.0772290714 0 0 0
12072 1 -47.739820345 1.8743305318 419.4375110731 0 0 0
40615 1 -40.0926839288 2.6115611273 414.3495895906 0 0 0
12110 1 -41.843051575 2.611547243 416.2121986375 0 0 0
41672 1 -39.447559239 3.3490883592 416.7104177179 0 0 0
12061 1 -54.0516302706 1.8745432465 417.0084536904 0 0 0
40604 1 -38.9878512428 1.8744315994 410.1253553383 0 0 0
12003 1 -42.7183180719 0.3978840899 417.1433359132 0 0 0
41709 1 -38.8023300262 4.0866480052 419.0712877686 0 0 0
12140 1 -50.1355224757 1.136632276 418.9383748171 0 0 0
41698 1 -38.5724690014 1.1354039505 415.7790349098 0 0 0
40614 1 -38.3426550344 2.6117951102 412.4864843054 0 0 0
12071 1 -45.9894850043 1.8743067771 417.5755892722 0 0 0
11986 1 -60.5893168755 0.3958721098 417.87431084 0 0 0
12101 1 -53.4054613859 2.6118592041 419.3705830395 0 0 0
40609 1 -37.6517684202 2.6103209651 402.625324295 0 0 0
41671 1 -37.6974739386 3.3492218461 414.8474979047 0 0 0
12111 1 -43.593600427 2.6117059969 418.074406365 0 0 0
12131 1 -58.1949214115 1.1346563264 418.3728606351 0 0 0
12062 1 -55.8003394164 1.8733627546 418.8716362222 0 0 0
40603 1 -37.238828071 1.8749788328 408.261335371 0 0 0
11994 1 -54.2798773229 0.3975994784 420.3021483231 0 0 0
11135 1 -41.6129008707 4.0877212461 412.9202087249 0 0 0
12180 1 -48.6147432068 4.087912363 420.368642777 0 0 0
12170 1 -56.6746284893 4.0864870961 419.8034166036 0 0 0
40587 1 -35.7183048115 0.3990865578 409.6909588785 0 0 0
11988 1 -64.086811772 0.394055196 421.6024451511 0 0 0
41695 1 -36.2203777606 2.6093382158 428.5155527321 0 0 0
11396 1 -40.7820920183 2.6105363529 424.2260782159 0 0 0
13480 1 -50.6325954078 3.3454819914 437.7659820374 0 0 0
13616 1 107.3454046327 4.0812587789 437.1388971025 -1 0 0
13519 1 -45.613849328 1.8705609304 435.4690421705 0 0 0
13628 1 -48.2376282233 4.0834824322 438.2641003837 0 0 0
41675 1 -38.3865330146 3.3480310042 424.7245886738 0 0 0
41667 1 -39.9070800169 0.3968028006 423.2948083671 0 0 0
41680 1 -39.0740015042 3.3465233065 434.6024912485 0 0 0
13531 1 -41.0524278002 1.8697319407 439.7584356231 0 0 0
41712 1 -35.991049092 4.0855552238 425.2230099923 0 0 0
13562 1 -46.7172370499 2.607427608 439.693877988 0 0 0
12181 1 -50.3641609286 4.0873375857 422.2312984545 0 0 0
41676 1 -40.1364371105 3.3480033895 426.587232606 0 0 0
13034 1 -48.0089232958 1.1326349173 434.9708386791 0 0 0
12028 1 -64.3155304115 3.3452038987 424.8963840914 0 0 0
13521 1 -49.1122342369 1.8694691105 439.1957920317 0 0 0
12141 1 -51.88483436 1.1359177348 420.8010071047 0 0 0
13440 1 -53.9020483286 0.393362856 438.1995714933 0 0 0
13620 1 -56.2968281293 4.0826528181 437.7014804036 0 0 0
13449 1 -42.3440404378 0.3948943959 435.0356617199 0 0 0
11995 1 -56.0286047507 0.3965146344 422.1655340384 0 0 0
11996 1 -57.7773482603 0.3955131411 424.0290741984 0 0 0
11997 1 -59.5261558815 0.3946296385 425.892678037 0 0 0
11998 1 -61.2750259078 0.3938578124 427.7563137233 0 0 0
11999 1 -63.0239426367 0.3931773727 429.6199704212 0 0 0
43118 1 -36.9077187626 2.6078875287 438.3936129308 0 0 0
12005 1 -46.2190745251 0.3980860381 420.8675660674 0 0 0
12006 1 -47.968805083 0.3977805312 422.7300445325 0 0 0
12007 1 -49.7181186906 0.3971899854 424.592915711 0 0 0
12008 1 -51.4671975283 0.3964476784 426.4560716363 0 0 0
12009 1 -53.216178164 0.3956605082 428.3193951475 0 0 0
12010 1 -54.9651275582 0.3948838126 430.1828138115 0 0 0
12011 1 -56.7140703866 0.394138633 432.0462906606 0 0 0
12012 1 -58.4630122205 0.3934281009 433.9098075614 0 0 0
12013 1 -41.6570542577 0.3967887012 425.1573591333 0 0 0
12014 1 -43.4067940386 0.3966188791 427.0200493355 0 0 0
12015 1 -45.1562925292 0.3962755974 428.8829469288 0 0 0
12016 1 -46.9056072224 0.3957968247 430.7460401026 0 0 0
12017 1 -48.6548031176 0.3952331455 432.6092852264 0 0 0
12018 1 -50.4039259098 0.3946241088 434.4726408648 0 0 0
13589 1 -49.758068799 1.1320541144 436.8342278604 0 0 0
12026 1 -60.8178281978 3.3467293762 421.1686581284 0 0 0
12027 1 -62.5666232124 3.3458840514 423.0325241372 0 0 0
12034 1 -52.7593181291 3.349185492 421.7325380535 0 0 0
12035 1 -54.5081691652 3.3482137135 423.5958168115 0 0 0
12036 1 -56.2569844593 3.3472715662 425.4592617053 0 0 0
12037 1 -58.005826838 3.3464071828 427.3227841164 0 0 0
12038 1 -59.7547070909 3.3456262981 429.1863485914 0 0 0
12039 1 -61.5036180901 3.3449177505 431.0499415836 0 0 0
12040 1 -63.2525461219 3.3442627617 432.9135599504 0 0 0
13490 1 -40.8234929892 3.3462190584 436.4655197058 0 0 0
12044 1 -44.69836274 3.3492863516 422.2975566724 0 0 0
12045 1 -46.4480997719 3.349041826 424.1601239958 0 0 0
12046 1 -48.1974864975 3.3485533353 426.0230061162 0 0 0
12047 1 -49.9466516589 3.3479130927 427.8861380612 0 0 0
12048 1 -51.6957056936 3.3472074864 429.7494317275 0 0 0
12049 1 -53.4447104001 3.3464883359 431.6128249458 0 0 0
12050 1 -55.1936929713 3.3457799325 433.4762821997 0 0 0
12052 1 -41.8861619193 3.3478550213 428.4499770743 0 0 0
12053 1 -43.6356894771 3.3475613511 430.3128898689 0 0 0
12054 1 -45.3850544494 3.347143099 432.1759753357 0 0 0
12055 1 -47.134304112 3.3466366504 434.0392062524 0 0 0
12064 1 -59.2976237788 1.8711446181 422.598879435 0 0 0
12065 1 -61.0464123075 1.8702669371 424.4625989212 0 0 0
12066 1 -62.7952888448 1.8695283527 426.3263335251 0 0 0
13600 1 -41.6982288359 1.132307122 437.3970550226 0 0 0
41686 1 -38.6158466874 1.8717822028 428.0170807933 0 0 0
12073 1 -49.4895192779 1.8739408357 421.2998992487 0 0 0
12074 1 -51.2387279948 1.8732254569 423.162779971 0 0 0
12075 1 -52.9876994653 1.8723704449 425.0259828541 0 0 0
12076 1 -54.7365972442 1.8715021319 426.889355831 0 0 0
12077 1 -56.4854896483 1.8706751517 428.7528168777 0 0 0
12078 1 -58.2343961957 1.8699044008 430.6163288065 0 0 0
12079 1 -59.9833168951 1.8691865543 432.4798754727 0 0 0
12080 1 -61.7322438671 1.8685091908 434.3434512158 0 0 0
12081 1 -41.4276494808 1.8730354249 421.8650289806 0 0 0
12082 1 -43.1776928629 1.8730343525 423.7274758563 0 0 0
12083 1 -44.9274338205 1.8728335977 425.5901112733 0 0 0
12084 1 -46.6768828538 1.8724265134 427.4530013767 0 0 0
12085 1 -48.4261281278 1.871874233 429.3161119659 0 0 0
12086 1 -50.175255897 1.8712440351 431.1793792473 0 0 0
12087 1 -51.9243203339 1.870582048 433.0427515495 0 0 0
12089 1 -42.1151267802 1.8713924876 431.7427665395 0 0 0
12090 1 -43.8645440399 1.8710219167 433.6058334588 0 0 0
12198 1 -44.7391843787 4.0845256618 434.5374469482 0 0 0
12102 1 -55.1542372747 2.6107785027 421.2338249259 0 0 0
12103 1 -56.9029584755 2.6097271641 423.0973107344 0 0 0
12104 1 -58.6517308226 2.608784484 424.9608919665 0 0 0
12105 1 -60.4005698165 2.6079592461 426.8245157754 0 0 0
12106 1 -62.149464747 2.6072365378 428.6881636684 0 0 0
12107 1 -63.8983970202 2.6065926197 430.5518306649 0 0 0
41687 1 -40.3655662632 1.8716483434 429.8798547313 0 0 0
12113 1 -47.0939973254 2.6117025206 421.7987652387 0 0 0
12114 1 -48.8434945354 2.6112396364 423.66145156 0 0 0
12115 1 -50.5926656278 2.6105566597 425.5244850124 0 0 0
12116 1 -52.3416800979 2.6097822489 427.3877395231 0 0 0
12117 1 -54.0906376387 2.6089964221 429.2511191625 0 0 0
12118 1 -55.8395804656 2.6082347348 431.1145715829 0 0 0
12119 1 -57.5885217261 2.6075077509 432.9780708873 0 0 0
12121 1 -42.5319510966 2.6104515069 426.0886899811 0 0 0
12122 1 -44.2815604366 2.6101926688 427.9514868942 0 0 0
12123 1 -46.0309534315 2.6097754398 429.814491642 0 0 0
12124 1 -47.7801973316 2.6092487601 431.6776703568 0 0 0
12125 1 -49.5293489426 2.6086590224 433.5409779463 0 0 0
12126 1 -41.4693034182 2.6087980475 434.1041447801 0 0 0
41685 1 -36.8659949881 1.8718234626 426.154376473 0 0 0
12133 1 -61.6922191071 1.1325552499 422.100569228 0 0 0
12134 1 -63.4410760587 1.1317976733 423.96443306 0 0 0
41689 1 -35.8038454153 1.8705805889 434.1694325157 0 0 0
12142 1 -53.6337653822 1.1349753249 422.6641328024 0 0 0
12143 1 -55.3825874977 1.1340073705 424.527507136 0 0 0
12144 1 -57.1314149074 1.133101176 426.3909948525 0 0 0
12145 1 -58.8802777986 1.1322787815 428.2545392197 0 0 0
12146 1 -60.6291756642 1.1315356347 430.1181178174 0 0 0
12147 1 -62.3780973339 1.1308561109 431.9817228952 0 0 0
12148 1 -64.1270275792 1.1302193095 433.8453547004 0 0 0
12151 1 -43.8233448382 1.1355813596 421.3663737968 0 0 0
12152 1 -45.5732860378 1.1354722788 423.228790602 0 0 0
12153 1 -47.322838247 1.1350968346 425.0915136637 0 0 0
12154 1 -49.0721014404 1.1345198354 426.9545283457 0 0 0
12155 1 -50.8212037155 1.1338379663 428.8177477281 0 0 0
12156 1 -52.5702306678 1.1331207196 430.6810946383 0 0 0
12157 1 -54.3192241536 1.1324045921 432.5445214893 0 0 0
12158 1 -56.0682009742 1.131704741 434.4080018757 0 0 0
12159 1 -41.0113303022 1.1342223564 427.518577101 0 0 0
12160 1 -42.7609602809 1.1340009892 429.3813957383 0 0 0
12161 1 -44.5104061104 1.133640652 431.2443919053 0 0 0
12162 1 -46.2597126561 1.1331733255 433.1075501147 0 0 0
43126 1 -39.9487833524 1.1326598854 435.5339645634 0 0 0
41714 1 -39.490719779 4.0854541188 428.9484621264 0 0 0
12172 1 -60.171994744 4.0844145251 423.530757688 0 0 0
12192 1 -47.5515107667 4.085889465 428.3845514733 0 0 0
12063 1 -57.5489403584 1.8721818449 420.7351985648 0 0 0
12185 1 -57.359924136 4.084010129 429.684591022 0 0 0
12186 1 -59.1088376361 4.083267383 431.5481225494 0 0 0
12187 1 -60.8577626326 4.0825721405 433.4116844576 0 0 0
41710 1 -40.5525528457 4.0867189423 420.93381892 0 0 0
12184 1 -55.6110269091 4.0848089737 427.8210999133 0 0 0
12182 1 -52.1132199449 4.086531758 424.0943680084 0 0 0
12193 1 -49.3006846845 4.0852912125 430.2477515718 0 0 0
12194 1 -51.0497731016 4.0846412503 432.1110791206 0 0 0
12195 1 -52.798815456 4.083974544 433.9744921824 0 0 0
12196 1 -41.2403533081 4.0852600397 430.8113066537 0 0 0
12197 1 -42.9898324145 4.0849444338 432.6743020736 0 0 0
43109 1 -39.3030005092 1.8701090595 437.8953070957 0 0 0
41713 1 -37.7409336061 4.0855355446 427.0857278559 0 0 0
12189 1 -42.3027033966 4.0867809264 422.7962418901 0 0 0
41705 1 -36.4495693686 1.1330754829 431.8081666969 0 0 0
13507 1 -63.4811655905 1.8678547245 436.2070569496 0 0 0
13601 1 -43.4475754408 1.1318668531 439.2602779927 0 0 0
12183 1 -53.8621384514 4.0856598746 425.957673711 0 0 0
12173 1 -61.9208288526 4.0836100599 425.3944869857 0 0 0
41666 1 -38.1569794236 0.3967549362 421.4322426094 0 0 0
13583 1 -59.5661182735 1.130356772 438.1350723927 0 0 0
13435 1 -61.9608767277 0.3920772061 437.6369355462 0 0 0
13621 1 -58.0458097154 4.0820044887 439.5650304581 0 0 0
41702 1 -37.5115351209 1.1342977784 423.793268486 0 0 0
13451 1 -45.8426636401 0.3939704114 438.7621518273 0 0 0
43135 1 -36.6786524885 4.0842192187 435.1008769495 0 0 0
13512 1 -57.1713442366 1.8685996523 438.6332245121 0 0 0
43137 1 -40.177693113 4.0836555051 438.8268856797 0 0 0
13590 1 -51.5071703609 1.1314523362 438.6976935866 0 0 0
13436 1 -63.7097805725 0.3914048024 439.500548796 0 0 0
41703 1 -39.2615032695 1.1343033631 425.6559024706 0 0 0
41696 1 -37.9701384572 2.6092536481 430.3783175055 0 0 0
43108 1 -37.5534708937 1.8703908073 436.0323112872 0 0 0
41679 1 -37.3244013859 3.3467296539 432.7395890649 0 0 0
41706 1 -38.1992293184 1.1329150286 433.6710085738 0 0 0
13481 1 -52.381680895 3.3448771296 439.6294787758 0 0 0
43093 1 -37.7825163343 0.394021397 439.3250796124 0 0 0
13552 1 -54.7765366902 2.6067771735 439.1313652132 0 0 0
41674 1 -36.6365419146 3.3480179926 422.8619142461 0 0 0
13940 1 -56.9426632189 3.3450904543 435.3397838929 0 0 0
13491 1 -42.572881275 3.3458216138 438.328681852 0 0 0
13520 1 -47.3630716516 1.8700356375 437.3323695147 0 0 0
13473 1 -58.6916225994 3.3444182289 437.2033196295 0 0 0
13551 1 -53.0275020465 2.6074070531 437.2678468845 0 0 0
13511 1 -55.4223551198 1.8692519623 436.7696908649 0 0 0
13545 1 -61.0863957859 2.6061400592 436.705168401 0 0 0
13450 1 -44.0933959324 0.3944686146 436.8988450189 0 0 0
43136 1 -38.4282225336 4.0839848302 436.9638184451 0 0 0
14061 1 -59.3374620076 2.606812997 434.8416046397 0 0 0
14060 1 -53.6733490341 1.8699138958 434.90619567 0 0 0
13026 1 -62.6066890566 4.0819090227 435.2752748374 0 0 0
42016 1 -40.5945764607 0.395227976 433.1726174498 0 0 0
12191 1 -45.8021801732 4.0863782369 426.5215391256 0 0 0
41669 1 -37.0952717637 0.3955805875 429.4469236478 0 0 0
13550 1 -51.2784437049 2.6080383942 435.4043785472 0 0 0
13627 1 -46.4884409456 4.0840301307 436.4007209783 0 0 0
41670 1 -38.8449869409 0.3954555081 431.3097139334 0 0 0
13560 1 -43.218704466 2.6084166777 435.9672647184 0 0 0
13434 1 -60.2119502134 0.3927454692 435.773356313 0 0 0
13479 1 -48.8834759912 3.3460747354 435.9025507433 0 0 0
13619 1 -54.547830839 4.0833092065 435.837964688 0 0 0
13582 1 -57.8171661582 1.1310240358 436.2715211424 0 0 0
41692 1 -39.0320399875 2.6105041466 422.3635368459 0 0 0
13546 1 -62.8353134102 2.6054726242 438.5687636348 0 0 0
13474 1 -60.4405667207 3.3437535435 439.0668859971 0 0 0
13561 1 -44.9680087419 2.6079530663 437.8305153059 0 0 0
41697 1 -39.7197852203 2.6090793481 432.2411658509 0 0 0
13439 1 -52.1530023329 0.3939953736 436.3360767434 0 0 0
43092 1 -36.0329495391 0.3942843853 437.4621221354 0 0 0
12174 1 -63.669739482 4.0829300892 427.2582266013 0 0 0
41701 1 -35.7615469027 1.1343035764 421.9305288038 0 0 0
12190 1 -44.0525981584 4.0866872944 424.6587717409 0 0 0
12171 1 -58.4232596509 4.0853706563 421.6670526915 0 0 0
12095 1 -63.2123647509 2.6081474072 420.6704474008 0 0 0
41691 1 -37.2819420844 2.6104737212 420.5008913165 0 0 0
43130 1 -38.8861978602 1.1311279211 443.5495110477 0 0 0
43561 1 -40.6355110128 1.1306332335 445.4127674735 0 0 0
43140 1 -37.3656760131 4.0825700308 444.9793025802 0 0 0
43098 1 -38.4692573799 0.392093553 449.2038155188 0 0 0
13441 1 -55.6510739964 0.3927352817 440.0631104928 0 0 0
13629 1 -49.9867677755 4.082904233 440.1275626834 0 0 0
13442 1 -57.4000825447 0.3921126511 441.926687071 0 0 0
13443 1 -59.1490661966 0.3914829422 443.7903036888 0 0 0
13444 1 -60.8980059684 0.3908218984 445.6539673948 0 0 0
13445 1 -62.6468789916 0.3900976302 447.5176797174 0 0 0
13452 1 -47.5918641438 0.3934206739 440.6255616356 0 0 0
13453 1 -49.341020644 0.3928417191 442.48905159 0 0 0
13454 1 -51.090160853 0.3922574458 444.3525996688 0 0 0
13455 1 -52.8393099817 0.3916871988 446.216195308 0 0 0
13456 1 -54.5884740364 0.3911342289 448.0798536343 0 0 0
13461 1 -41.2813353483 0.3932042499 443.0513948388 0 0 0
13462 1 -43.0305945177 0.3926677534 444.9147397363 0 0 0
13463 1 -44.7797806534 0.3920744908 446.7781748458 0 0 0
13464 1 -46.5289407512 0.3914623161 448.6416530857 0 0 0
13475 1 -62.189485481 3.3430791966 440.9304853962 0 0 0
13476 1 -63.9383647018 3.3423725793 442.7941229922 0 0 0
13482 1 -54.1307474528 3.3442741999 441.4930249145 0 0 0
13483 1 -55.879803503 3.3436795253 443.356613457 0 0 0
13484 1 -57.6288435326 3.3430861328 445.2202500644 0 0 0
13485 1 -59.3778461729 3.3424726436 447.0839480501 0 0 0
13486 1 -61.1267832947 3.3418090379 448.9477135927 0 0 0
13492 1 -44.3221796429 3.3453446109 440.191968681 0 0 0
13493 1 -46.071405733 3.3448060403 442.0553624818 0 0 0
13494 1 -47.8205840366 3.3442284679 443.9188391181 0 0 0
13495 1 -49.5697487178 3.3436393505 445.782371335 0 0 0
13496 1 -51.3189352376 3.3430629882 447.6459428166 0 0 0
13497 1 -53.0681568522 3.3425024607 449.5095709527 0 0 0
13501 1 -41.5100738165 3.3440829433 446.3444820685 0 0 0
13502 1 -43.2592426842 3.343485704 448.2078921563 0 0 0
13513 1 -58.9203154496 1.8679516259 440.496791225 0 0 0
13514 1 -60.6692596288 1.8672925291 442.3603927133 0 0 0
13515 1 -62.4181604448 1.8665981103 444.2240339406 0 0 0
13584 1 -61.3150501573 1.1296894223 439.9986551679 0 0 0
13522 1 -50.8613581023 1.8688822963 441.0592879012 0 0 0
13523 1 -52.6104642773 1.868294523 442.9228387817 0 0 0
13524 1 -54.3595686392 1.8677189531 444.7864367059 0 0 0
13525 1 -56.1086704729 1.867154567 446.6500920757 0 0 0
13526 1 -57.8577481077 1.8665850177 448.5138293726 0 0 0
13532 1 -42.8017581007 1.8692677422 441.621693471 0 0 0
13533 1 -44.5510052236 1.8687319863 443.4850648609 0 0 0
13534 1 -46.3001941204 1.8681476323 445.3485230546 0 0 0
13535 1 -48.0493656251 1.8675463599 447.2120322373 0 0 0
13536 1 -49.7985673251 1.8669585077 449.0755649131 0 0 0
43102 1 -38.0114529946 3.34506336 442.6179710605 0 0 0
13553 1 -56.5255546184 2.6061534528 440.9949227704 0 0 0
13554 1 -58.2745538302 2.6055301739 442.8585177421 0 0 0
13555 1 -60.02352029 2.6048888165 444.7221560498 0 0 0
13556 1 -61.772431688 2.6042006163 446.585843399 0 0 0
13557 1 -63.5212664656 2.6034314842 448.4495756089 0 0 0
13563 1 -48.4664108174 2.6068615812 441.5573311489 0 0 0
13564 1 -50.2155555094 2.6062781912 443.4208518912 0 0 0
13565 1 -51.9646990191 2.605700238 445.2844223197 0 0 0
13566 1 -53.7138589243 2.6051402243 447.1480435295 0 0 0
13567 1 -55.4630270607 2.6045912473 449.0117449172 0 0 0
13572 1 -42.1559294931 2.6066719579 443.983093205 0 0 0
13573 1 -43.9051462343 2.6061053724 445.8464882015 0 0 0
13574 1 -45.6543124275 2.6054992769 447.7099510551 0 0 0
13575 1 -47.4034851626 2.6048964133 449.5734317993 0 0 0
13585 1 -63.0639494038 1.1290016639 441.862273676 0 0 0
13591 1 -53.2562447875 1.1308461556 440.5612167101 0 0 0
13592 1 -55.0053047772 1.1302464819 442.424784836 0 0 0
13593 1 -56.7543528556 1.1296536617 444.2883969767 0 0 0
13594 1 -58.5033753128 1.1290531573 446.1520639676 0 0 0
13595 1 -60.2523459959 1.1284185145 448.0157974886 0 0 0
13602 1 -45.196838397 1.1313552626 441.1236194505 0 0 0
13603 1 -46.9460382244 1.1307926351 442.9870580451 0 0 0
13604 1 -48.6952045472 1.1302044302 444.8505668488 0 0 0
13605 1 -50.4443746676 1.129618487 446.7141211031 0 0 0
13606 1 -52.1935765193 1.1290509551 448.5777188971 0 0 0
13611 1 -42.3847204304 1.1300605774 447.2761364946 0 0 0
13612 1 -44.1338610943 1.1294455944 449.1395727889 0 0 0
13622 1 -59.7947705651 4.0813539338 441.4286133756 0 0 0
13623 1 -61.543697319 4.0806809269 443.2922333861 0 0 0
13624 1 -63.2925719075 4.0799583763 445.155894755 0 0 0
13516 1 -64.1670002729 1.8658398068 446.0877166724 0 0 0
13630 1 -51.7358805715 4.0823157316 441.9910875805 0 0 0
13631 1 -53.484986012 4.0817340269 443.8546610689 0 0 0
13632 1 -55.2340927807 4.0811660247 445.7182840393 0 0 0
13633 1 -56.9831888389 4.0806022666 447.581975715 0 0 0
13634 1 -58.7322459152 4.0800223503 449.4457600059 0 0 0
13638 1 -41.9270650455 4.0832344023 440.6900835102 0 0 0
13639 1 -43.676348224 4.0827335268 442.553402009 0 0 0
13640 1 -45.4255612334 4.0821715572 444.4168203278 0 0 0
13641 1 -47.1747364281 4.081575745 446.2803067766 0 0 0
13642 1 -48.9239202897 4.0809794647 448.1438264629 0 0 0
43141 1 -39.1149856839 4.082079529 446.842527357 0 0 0
43101 1 -36.2619754458 3.3454083917 440.7549113893 0 0 0
43119 1 -38.6572255833 2.6075765789 440.2566418486 0 0 0
43989 1 -40.4066278352 2.6071683932 442.1198041326 0 0 0
43097 1 -36.7200190602 0.3926448295 447.3405560995 0 0 0
43129 1 -37.1367692676 1.1315260538 441.6863877563 0 0 0
43122 1 -37.5945910457 2.6061094231 448.2722153892 0 0 0
43112 1 -38.2404044813 1.8686119153 445.9108543611 0 0 0
43111 1 -36.4910261017 1.8690537642 444.0476982105 0 0 0
13647 1 -40.8641760477 4.0815033865 448.7058701039 0 0 0
44174 1 -39.9896544779 1.8680723411 447.7741410685 0 0 0
43103 1 -39.7608175603 3.3446173915 444.4811649561 0 0 0
43094 1 -39.5319790665 0.3936600356 441.1881700876 0 0 0
43121 1 -35.8452829035 2.6066045833 446.4090253494 0 0 0
13446 1 107.3053419106 0.3892741219 449.3814300655 -1 0 0
11109 1 -55.2866757701 4.1196022659 400.173944202 0 0 0
11141 1 -60.0221015467 2.6101965157 399.2613806613 0 0 0
11120 1 -47.2305656993 4.1085145652 400.6475932537 0 0 0
40628 1 -39.1694348908 4.0694762124 401.1639439385 0 0 0
11121 1 -48.9828385531 4.0925895478 402.5063246003 0 0 0
11123 1 -52.4811505335 4.0833573739 406.200636049 0 0 0
12629 1 -43.3633965958 4.087713543 414.7826774495 0 0 0
11133 1 -49.675606835 4.0887290504 412.3552177366 0 0 0
11131 1 -46.1731977908 4.0892795843 408.6325249611 0 0 0
11122 1 -50.7344936849 4.0843773371 404.3380128558 0 0 0
11110 1 -57.0338325433 4.0722063708 401.9361373832 0 0 0
40633 1 -39.8627475378 4.0879705812 411.057339999 0 0 0
12164 1 -62.9836420308 4.0845896599 417.3760803163 0 0 0
11124 1 -54.2348957362 4.0866202282 408.0620457411 0 0 0
11132 1 -47.9240157177 4.0886176467 410.4942971292 0 0 0
11111 1 -58.7954952176 4.0918546187 403.7845677007 0 0 0
11125 1 -55.9890601014 4.0897730622 409.9209359477 0 0 0
11374 1 -61.2350825932 4.0857682059 415.5116716362 0 0 0
11114 1 -64.0461048091 4.0860119907 409.3543963324 0 0 0
11112 1 -60.5576067734 4.0978377625 405.6215028712 0 0 0